
     Program PWSCF v.7.1 starts on 27Jun2023 at 18:13:45 

     This program is part of the open-source Quantum ESPRESSO suite
     for quantum simulation of materials; please cite
         "P. Giannozzi et al., J. Phys.:Condens. Matter 21 395502 (2009);
         "P. Giannozzi et al., J. Phys.:Condens. Matter 29 465901 (2017);
         "P. Giannozzi et al., J. Chem. Phys. 152 154105 (2020);
          URL http://www.quantum-espresso.org", 
     in publications or presentations arising from this work. More details at
     http://www.quantum-espresso.org/quote

     Parallel version (MPI), running on    42 processors

     MPI processes distributed on     1 nodes
     557872 MiB available memory on the printing compute node when the environment starts

     Waiting for input...
     Reading input from standard input

     Current dimensions of program PWSCF are:
     Max number of different atomic species (ntypx) = 10
     Max number of k-points (npk) =  40000
     Max angular momentum in pseudopotentials (lmaxx) =  4
     Message from routine cell_base_init:
     DEPRECATED: use true lattice parameter, not A to a.u. conversion factor

     IMPORTANT: XC functional enforced from input :
     Exchange-correlation= PBE
                           (   1   4   3   4   0   0   0)
     Any further DFT definition will be discarded
     Please, verify this is what you really want

     Message from routine setup:
     using ibrav=0 with symmetry is DISCOURAGED, use correct ibrav instead

     R & G space division:  proc/nbgrp/npool/nimage =      42
     Subspace diagonalization in iterative solution of the eigenvalue problem:
     a serial algorithm will be used


     Parallelization info
     --------------------
     sticks:   dense  smooth     PW     G-vecs:    dense   smooth      PW
     Min          11      11      3                 2413     2413     395
     Max          12      12      4                 2456     2456     430
     Sum         475     475    151               102231   102231   17199

     Using Slab Decomposition



     bravais-lattice index     =            0
     lattice parameter (alat)  =       1.8897  a.u.
     unit-cell volume          =    2142.8036 (a.u.)^3
     number of atoms/cell      =            6
     number of atomic types    =            2
     number of electrons       =        52.00
     number of Kohn-Sham states=           36
     kinetic-energy cutoff     =      50.0000  Ry
     charge density cutoff     =     199.9999  Ry
     scf convergence threshold =      7.3E-08
     mixing beta               =       0.7000
     number of iterations used =            8  plain     mixing
     Exchange-correlation= PBE
                           (   1   4   3   4   0   0   0)

     celldm(1)=   1.889726  celldm(2)=   0.000000  celldm(3)=   0.000000
     celldm(4)=   0.000000  celldm(5)=   0.000000  celldm(6)=   0.000000

     crystal axes: (cart. coord. in units of alat)
               a(1) = (   3.112600   0.000000   0.000000 )  
               a(2) = (  -1.556300   2.695591   0.000000 )  
               a(3) = (   0.000000   0.000000  37.845000 )  

     reciprocal axes: (cart. coord. in units 2 pi/alat)
               b(1) = (  0.321275  0.185488 -0.000000 )  
               b(2) = (  0.000000  0.370976  0.000000 )  
               b(3) = (  0.000000 -0.000000  0.026424 )  


     PseudoPot. # 1 for Mo read from file:
     /ccs/home/dpalmer3/qe-7.1/pseudo/Mo.UPF
     MD5 check sum: e75ed155aa411dd1617a1e98b4cfb1d3
     Pseudo is Norm-conserving, Zval = 14.0
     Generated using ONCVPSP code by D. R. Hamann
     Using radial grid of  602 points,  6 beta functions with: 
                l(1) =   0
                l(2) =   0
                l(3) =   1
                l(4) =   1
                l(5) =   2
                l(6) =   2

     PseudoPot. # 2 for S  read from file:
     /ccs/home/dpalmer3/qe-7.1/pseudo/S.UPF
     MD5 check sum: bb66adc3f78a1ab6d878b9658eae71a4
     Pseudo is Norm-conserving, Zval =  6.0
     Generated using ONCVPSP code by D. R. Hamann
     Using radial grid of  602 points,  4 beta functions with: 
                l(1) =   0
                l(2) =   0
                l(3) =   1
                l(4) =   1

     atomic species   valence    mass     pseudopotential
        Mo1           14.00    95.95000     Mo( 1.00)
        S1             6.00    32.06000     S ( 1.00)

      6 Sym. Ops. (no inversion) found



   Cartesian axes

     site n.     atom                  positions (alat units)
         1           Mo1 tau(   1) = (   0.0000000   0.0000000  11.5850000  )
         2           S1  tau(   2) = (   1.5563000   0.8985302  13.1700000  )
         3           S1  tau(   3) = (   1.5563000   0.8985302  10.0000000  )
         4           Mo1 tau(   4) = (   1.5563000   0.8985302  17.8450000  )
         5           S1  tau(   5) = (  -0.0000000   1.7970604  19.4300000  )
         6           S1  tau(   6) = (  -0.0000000   1.7970604  16.2600000  )

     number of k points=    27
                       cart. coord. in units 2pi/alat
        k(    1) = (   0.0000000   0.0000000   0.0000000), wk =   0.0088889
        k(    2) = (   0.0000000   0.0247317   0.0000000), wk =   0.0533333
        k(    3) = (   0.0000000   0.0494635   0.0000000), wk =   0.0533333
        k(    4) = (   0.0000000   0.0741952   0.0000000), wk =   0.0533333
        k(    5) = (   0.0000000   0.0989270   0.0000000), wk =   0.0533333
        k(    6) = (   0.0000000   0.1236587   0.0000000), wk =   0.0533333
        k(    7) = (   0.0000000   0.1483905   0.0000000), wk =   0.0533333
        k(    8) = (   0.0000000   0.1731222   0.0000000), wk =   0.0533333
        k(    9) = (   0.0214183   0.0370976   0.0000000), wk =   0.0533333
        k(   10) = (   0.0214183   0.0618294   0.0000000), wk =   0.1066667
        k(   11) = (   0.0214183   0.0865611   0.0000000), wk =   0.1066667
        k(   12) = (   0.0214183   0.1112929   0.0000000), wk =   0.1066667
        k(   13) = (   0.0214183   0.1360246   0.0000000), wk =   0.1066667
        k(   14) = (   0.0214183   0.1607564   0.0000000), wk =   0.1066667
        k(   15) = (   0.0214183   0.1854881   0.0000000), wk =   0.0533333
        k(   16) = (   0.0428366   0.0741952   0.0000000), wk =   0.0533333
        k(   17) = (   0.0428366   0.0989270   0.0000000), wk =   0.1066667
        k(   18) = (   0.0428366   0.1236587   0.0000000), wk =   0.1066667
        k(   19) = (   0.0428366   0.1483905   0.0000000), wk =   0.1066667
        k(   20) = (   0.0428366   0.1731222   0.0000000), wk =   0.1066667
        k(   21) = (   0.0642550   0.1112929   0.0000000), wk =   0.0533333
        k(   22) = (   0.0642550   0.1360246   0.0000000), wk =   0.1066667
        k(   23) = (   0.0642550   0.1607564   0.0000000), wk =   0.1066667
        k(   24) = (   0.0642550   0.1854881   0.0000000), wk =   0.0533333
        k(   25) = (   0.0856733   0.1483905   0.0000000), wk =   0.0533333
        k(   26) = (   0.0856733   0.1731222   0.0000000), wk =   0.1066667
        k(   27) = (   0.1070916   0.1854881   0.0000000), wk =   0.0177778

     Dense  grid:   102231 G-vectors     FFT dimensions: (  27,  27, 324)

     Estimated max dynamical RAM per process >       9.70 MB

     Estimated total dynamical RAM >     407.25 MB

     Atomic positions and unit cell read from directory:
     ./calc.save/

     Cannot read rho : file not found

     Initial potential from superposition of free atoms

     starting charge      51.7773, renormalised to      52.0000

     negative rho (up, down):  5.946E-04 0.000E+00
     Wavefunctions not found or not readable, recomputing them from scratch
     Starting wfcs are random

     total cpu time spent up to now is        2.3 secs

     Self-consistent Calculation

     iteration #  1     ecut=    50.00 Ry     beta= 0.70
     Davidson diagonalization with overlap
     c_bands:  4 eigenvalues not converged
     c_bands:  2 eigenvalues not converged
     c_bands:  3 eigenvalues not converged
     c_bands:  5 eigenvalues not converged
     c_bands:  3 eigenvalues not converged
     c_bands:  1 eigenvalues not converged
     c_bands:  5 eigenvalues not converged
     c_bands:  4 eigenvalues not converged
     ethr =  1.00E-05,  avg # of iterations = 27.7

     negative rho (up, down):  1.370E-04 0.000E+00

     total cpu time spent up to now is       30.7 secs

     total energy              =    -356.59159615 Ry
     estimated scf accuracy    <       0.18440875 Ry

     iteration #  2     ecut=    50.00 Ry     beta= 0.70
     Davidson diagonalization with overlap
     ethr =  3.55E-04,  avg # of iterations =  4.0

     negative rho (up, down):  6.712E-05 0.000E+00

     total cpu time spent up to now is       35.4 secs

     total energy              =    -356.63272424 Ry
     estimated scf accuracy    <       0.06590697 Ry

     iteration #  3     ecut=    50.00 Ry     beta= 0.70
     Davidson diagonalization with overlap
     ethr =  1.27E-04,  avg # of iterations =  2.9

     negative rho (up, down):  5.019E-05 0.000E+00

     total cpu time spent up to now is       38.9 secs

     total energy              =    -356.63711137 Ry
     estimated scf accuracy    <       0.06821408 Ry

     iteration #  4     ecut=    50.00 Ry     beta= 0.70
     Davidson diagonalization with overlap
     ethr =  1.27E-04,  avg # of iterations =  1.7

     negative rho (up, down):  6.793E-06 0.000E+00

     total cpu time spent up to now is       41.3 secs

     total energy              =    -356.64890613 Ry
     estimated scf accuracy    <       0.00562545 Ry

     iteration #  5     ecut=    50.00 Ry     beta= 0.70
     Davidson diagonalization with overlap
     ethr =  1.08E-05,  avg # of iterations =  5.4

     negative rho (up, down):  4.290E-06 0.000E+00

     total cpu time spent up to now is       45.8 secs

     total energy              =    -356.64874700 Ry
     estimated scf accuracy    <       0.01073274 Ry

     iteration #  6     ecut=    50.00 Ry     beta= 0.70
     Davidson diagonalization with overlap
     ethr =  1.08E-05,  avg # of iterations =  3.5

     negative rho (up, down):  1.480E-06 0.000E+00

     total cpu time spent up to now is       49.1 secs

     total energy              =    -356.64971289 Ry
     estimated scf accuracy    <       0.00016063 Ry

     iteration #  7     ecut=    50.00 Ry     beta= 0.70
     Davidson diagonalization with overlap
     ethr =  3.09E-07,  avg # of iterations =  6.3

     negative rho (up, down):  9.080E-08 0.000E+00

     total cpu time spent up to now is       55.1 secs

     total energy              =    -356.64971189 Ry
     estimated scf accuracy    <       0.00072273 Ry

     iteration #  8     ecut=    50.00 Ry     beta= 0.70
     Davidson diagonalization with overlap
     ethr =  3.09E-07,  avg # of iterations =  3.2

     total cpu time spent up to now is       58.3 secs

     total energy              =    -356.64978489 Ry
     estimated scf accuracy    <       0.00000550 Ry

     iteration #  9     ecut=    50.00 Ry     beta= 0.70
     Davidson diagonalization with overlap
     ethr =  1.06E-08,  avg # of iterations =  4.3

     negative rho (up, down):  1.202E-07 0.000E+00

     total cpu time spent up to now is       62.7 secs

     total energy              =    -356.64979080 Ry
     estimated scf accuracy    <       0.00000173 Ry

     iteration # 10     ecut=    50.00 Ry     beta= 0.70
     Davidson diagonalization with overlap
     ethr =  3.33E-09,  avg # of iterations =  4.8

     negative rho (up, down):  6.054E-08 0.000E+00

     total cpu time spent up to now is       67.5 secs

     total energy              =    -356.64979298 Ry
     estimated scf accuracy    <       0.00000364 Ry

     iteration # 11     ecut=    50.00 Ry     beta= 0.70
     Davidson diagonalization with overlap
     ethr =  3.33E-09,  avg # of iterations =  2.1

     total cpu time spent up to now is       70.6 secs

     total energy              =    -356.64979366 Ry
     estimated scf accuracy    <       0.00000120 Ry

     iteration # 12     ecut=    50.00 Ry     beta= 0.70
     Davidson diagonalization with overlap
     ethr =  2.30E-09,  avg # of iterations =  1.3

     total cpu time spent up to now is       72.8 secs

     End of self-consistent calculation

          k = 0.0000 0.0000 0.0000 ( 12941 PWs)   bands (ev):

   -61.2327 -61.1899 -35.4340 -35.3908 -35.1340 -35.1340 -35.0916 -35.0916
   -14.7903 -14.6552 -13.5324 -13.3296  -6.4821  -5.9998  -2.9518  -2.9125
    -2.9125  -2.8697  -2.8697  -1.9436  -1.7604  -1.7604  -1.7158  -1.7158
    -0.8472  -0.1721   2.5083   2.5083   2.5663   2.5663   2.6856   2.6856
     2.7486   2.7486   4.9782   5.0178

          k = 0.0000 0.0247 0.0000 ( 12937 PWs)   bands (ev):

   -61.2305 -61.1877 -35.4297 -35.3865 -35.1548 -35.1387 -35.1123 -35.0962
   -14.7178 -14.5830 -13.4988 -13.2998  -6.3995  -5.9174  -3.1125  -3.0762
    -3.0331  -2.8374  -2.7944  -2.3650  -1.8781  -1.8326  -1.6823  -1.4552
    -0.8455  -0.2326   2.4101   2.4495   2.4864   2.5373   2.5711   2.6403
     2.6707   2.7082   5.0907   5.1285

          k = 0.0000 0.0495 0.0000 ( 12897 PWs)   bands (ev):

   -61.2242 -61.1815 -35.4174 -35.3743 -35.2132 -35.1707 -35.1518 -35.1093
   -14.5069 -14.3734 -13.4011 -13.2133  -6.1731  -5.6954  -3.5040  -3.4783
    -3.4353  -2.9295  -2.6232  -2.5792  -2.1761  -2.1285  -1.6706  -1.3266
    -0.8894  -0.4618   1.9908   2.1542   2.2785   2.3802   2.3993   2.4775
     2.9255   3.0003   5.3790   5.4160

          k = 0.0000 0.0742 0.0000 ( 12835 PWs)   bands (ev):

   -61.2150 -61.1722 -35.3994 -35.3562 -35.2982 -35.2557 -35.1711 -35.1286
   -14.1778 -14.0476 -13.2491 -13.0795  -5.8849  -5.4372  -4.0064  -3.9611
    -3.8776  -3.5214  -2.5504  -2.5001  -2.3028  -2.2564  -1.8386  -1.4716
    -1.0760  -0.8695   1.6085   1.9413   2.1447   2.2474   2.3372   2.5818
     3.2612   3.3581   5.8098   5.8474

          k = 0.0000 0.0989 0.0000 ( 12769 PWs)   bands (ev):

   -61.2044 -61.1616 -35.3945 -35.3786 -35.3520 -35.3355 -35.1931 -35.1506
   -13.7655 -13.6423 -13.0601 -12.9151  -5.7277  -5.4042  -4.4745  -4.3167
    -4.2414  -4.0756  -2.9145  -2.8626  -2.1248  -1.9390  -1.8853  -1.7677
    -1.3749  -1.2689   1.5474   1.9505   1.9704   2.0668   2.6237   2.9393
     3.5473   3.6738   6.3525   6.3937

          k = 0.0000 0.1237 0.0000 ( 12764 PWs)   bands (ev):

   -61.1942 -61.1514 -35.4853 -35.4429 -35.3587 -35.3155 -35.2141 -35.1716
   -13.3236 -13.2129 -12.8609 -12.7456  -5.8898  -5.7228  -4.9170  -4.7238
    -4.4430  -4.2666  -3.2191  -3.1659  -2.3910  -2.0572  -1.6094  -1.5417
    -1.5252  -1.4106   1.7613   1.9176   1.9962   2.1220   2.9829   3.2980
     3.7447   3.9017   6.8986   6.9493

          k = 0.0000 0.1484 0.0000 ( 12748 PWs)   bands (ev):

   -61.1862 -61.1434 -35.5555 -35.5130 -35.3430 -35.2999 -35.2304 -35.1879
   -12.9310 -12.8390 -12.6875 -12.6042  -6.2027  -6.1047  -5.2881  -5.1465
    -4.5661  -4.3922  -3.4348  -3.3808  -2.5640  -2.2586  -1.3938  -1.3807
    -1.2955  -1.2551   1.9783   2.0362   2.1077   2.3672   3.2630   3.5387
     3.8577   4.0389   6.4821   6.8843

          k = 0.0000 0.1731 0.0000 ( 12724 PWs)   bands (ev):

   -61.1818 -61.1390 -35.5935 -35.5511 -35.3344 -35.2913 -35.2393 -35.1968
   -12.6912 -12.6191 -12.5794 -12.5242  -6.4246  -6.3445  -5.5000  -5.3839
    -4.6713  -4.5057  -3.5461  -3.4917  -2.6412  -2.3586  -1.2721  -1.1837
    -1.1749  -1.0713   2.0594   2.1063   2.4196   2.5610   3.3932   3.6400
     3.9065   4.1009   5.9046   6.2769

          k = 0.0214 0.0371 0.0000 ( 12899 PWs)   bands (ev):

   -61.2263 -61.1835 -35.4214 -35.3782 -35.1937 -35.1512 -35.1483 -35.1058
   -14.5760 -14.4421 -13.4332 -13.2416  -6.2442  -5.7640  -3.3738  -3.3539
    -3.3143  -2.7511  -2.6956  -2.6524  -2.1455  -2.1002  -1.5995  -1.2906
    -0.8649  -0.3765   2.1318   2.2294   2.2869   2.3536   2.4506   2.5248
     2.8669   2.9263   5.2884   5.3254

          k = 0.0214 0.0618 0.0000 ( 12854 PWs)   bands (ev):

   -61.2185 -61.1757 -35.4063 -35.3631 -35.2635 -35.2210 -35.1663 -35.1238
   -14.3058 -14.1741 -13.3080 -13.1312  -5.9798  -5.5130  -3.8147  -3.7790
    -3.6958  -3.2441  -2.5900  -2.5446  -2.4446  -2.3995  -1.5890  -1.2700
    -0.9777  -0.6988   1.7027   1.9634   2.1809   2.2283   2.2951   2.4039
     3.2231   3.2812   5.6477   5.6847

          k = 0.0214 0.0866 0.0000 ( 12812 PWs)   bands (ev):

   -61.2086 -61.1658 -35.3868 -35.3518 -35.3437 -35.3093 -35.1894 -35.1469
   -13.9341 -13.8076 -13.1364 -12.9810  -5.7361  -5.3401  -4.2574  -4.1805
    -4.0805  -3.8040  -3.0248  -2.9606  -2.1615  -2.1124  -1.7597  -1.4722
    -1.2170  -1.1037   1.4659   1.8069   2.0892   2.1429   2.3604   2.6264
     3.5591   3.6255   6.1437   6.1818

          k = 0.0214 0.1113 0.0000 ( 12774 PWs)   bands (ev):

   -61.1982 -61.1554 -35.4428 -35.4003 -35.3665 -35.3233 -35.2134 -35.1709
   -13.5044 -13.3876 -12.9401 -12.8117  -5.7423  -5.5106  -4.6809  -4.4839
    -4.3530  -4.1992  -3.3412  -3.2502  -2.0597  -1.9847  -1.9308  -1.7815
    -1.3470  -1.2877   1.4963   1.8037   2.0838   2.1643   2.6873   2.9724
     3.7992   3.8685   6.7251   6.7683

          k = 0.0214 0.1360 0.0000 ( 12758 PWs)   bands (ev):

   -61.1891 -61.1463 -35.5210 -35.4786 -35.3487 -35.3055 -35.2342 -35.1917
   -13.0818 -12.9808 -12.7502 -12.6528  -6.0041  -5.8797  -5.1192  -4.9769
    -4.4696  -4.2923  -3.5172  -3.4308  -2.3361  -2.0947  -1.9013  -1.8256
    -1.2017  -1.1503   1.7114   1.9330   2.2028   2.3102   3.0508   3.3025
     3.9034   3.9700   6.9586   7.1952

          k = 0.0214 0.1608 0.0000 ( 12772 PWs)   bands (ev):

   -61.1829 -61.1401 -35.5737 -35.5312 -35.3366 -35.2934 -35.2483 -35.2058
   -12.7578 -12.6773 -12.6052 -12.5392  -6.2762  -6.1900  -5.4411  -5.3316
    -4.5982  -4.4290  -3.5911  -3.5271  -2.5354  -2.2929  -1.7741  -1.6920
    -1.0023  -0.9352   1.9645   2.0656   2.3955   2.5201   3.3540   3.5534
     3.8565   3.9512   6.2015   6.6254

          k = 0.0214 0.1855 0.0000 ( 12746 PWs)   bands (ev):

   -61.1807 -61.1379 -35.5922 -35.5497 -35.3323 -35.2891 -35.2533 -35.2108
   -12.6341 -12.5694 -12.5428 -12.4981  -6.3880  -6.3093  -5.5585  -5.4581
    -4.6611  -4.4956  -3.6076  -3.5573  -2.6080  -2.3633  -1.7157  -1.6323
    -0.9044  -0.8302   2.0704   2.1055   2.5277   2.6288   3.5082   3.6740
     3.7709   3.8998   5.8842   6.2626

          k = 0.0428 0.0742 0.0000 ( 12797 PWs)   bands (ev):

   -61.2101 -61.1673 -35.3897 -35.3466 -35.3334 -35.2909 -35.1913 -35.1488
   -13.9922 -13.8646 -13.1626 -13.0035  -5.7420  -5.3197  -4.1652  -4.1156
    -3.9515  -3.5853  -3.2130  -3.1599  -2.2692  -2.2211  -1.5305  -1.2812
    -1.1436  -1.0252   1.4238   1.7441   2.1125   2.1287   2.2151   2.4553
     3.6019   3.6452   6.0768   6.1138

          k = 0.0428 0.0989 0.0000 ( 12793 PWs)   bands (ev):

   -61.2003 -61.1576 -35.4109 -35.3707 -35.3684 -35.3276 -35.2218 -35.1793
   -13.6005 -13.4807 -12.9812 -12.8458  -5.6386  -5.3491  -4.4477  -4.3014
    -4.2171  -4.0929  -3.6776  -3.5055  -2.2846  -2.2302  -1.6663  -1.4817
    -1.2562  -1.2186   1.3029   1.6633   2.1575   2.2013   2.3740   2.6445
     3.8900   3.9318   6.6332   6.6710

          k = 0.0428 0.1237 0.0000 ( 12775 PWs)   bands (ev):

   -61.1910 -61.1482 -35.4835 -35.4410 -35.3525 -35.3094 -35.2514 -35.2090
   -13.1832 -13.0766 -12.7889 -12.6821  -5.7849  -5.6211  -4.9114  -4.8101
    -4.3366  -4.1694  -3.8123  -3.6079  -2.4459  -2.3786  -1.9621  -1.8160
    -1.1799  -1.1309   1.4335   1.8200   2.3084   2.3464   2.6696   2.9098
     4.0343   4.0752   7.2390   7.2746

          k = 0.0428 0.1484 0.0000 ( 12794 PWs)   bands (ev):

   -61.1837 -61.1409 -35.5395 -35.4970 -35.3382 -35.2951 -35.2748 -35.2323
   -12.8164 -12.7287 -12.6200 -12.5445  -6.0156  -5.9105  -5.3665  -5.2898
    -4.4435  -4.2734  -3.7908  -3.6233  -2.4948  -2.3895  -2.2837  -2.1372
    -0.9858  -0.9315   1.7321   2.0320   2.4727   2.5300   2.9802   3.1660
     4.0033   4.1051   6.7056   7.1484

          k = 0.0428 0.1731 0.0000 ( 12760 PWs)   bands (ev):

   -61.1797 -61.1370 -35.5699 -35.5274 -35.3304 -35.2876 -35.2873 -35.2451
   -12.5962 -12.5335 -12.5060 -12.4660  -6.1703  -6.0885  -5.6239  -5.5516
    -4.5727  -4.4052  -3.7100  -3.6102  -2.5423  -2.4407  -2.3685  -2.3083
    -0.8054  -0.7313   1.9628   2.0614   2.6305   2.7368   3.1881   3.3468
     3.8907   4.0717   6.1352   6.5693

          k = 0.0643 0.1113 0.0000 ( 12803 PWs)   bands (ev):

   -61.1917 -61.1489 -35.4656 -35.4232 -35.3539 -35.3107 -35.2622 -35.2198
   -13.2188 -13.1103 -12.8020 -12.6918  -5.6859  -5.4998  -4.7768  -4.7228
    -4.2796  -4.1213  -3.9573  -3.6989  -2.6933  -2.6321  -1.7908  -1.6911
    -1.1923  -1.1313   1.3281   1.7674   2.3423   2.3535   2.4976   2.7276
     4.0970   4.1511   7.2275   7.2641

          k = 0.0643 0.1360 0.0000 ( 12821 PWs)   bands (ev):

   -61.1842 -61.1414 -35.5088 -35.4663 -35.3392 -35.3016 -35.2960 -35.2592
   -12.8504 -12.7587 -12.6262 -12.5452  -5.7990  -5.6666  -5.2996  -5.2596
    -4.2500  -4.0987  -3.9216  -3.6918  -3.0785  -2.9898  -2.0957  -2.0124
    -1.0269  -0.9685   1.5724   1.9854   2.5181   2.5669   2.6702   2.8332
     4.2005   4.2860   7.2675   7.5528

          k = 0.0643 0.1608 0.0000 ( 12765 PWs)   bands (ev):

   -61.1791 -61.1363 -35.5358 -35.4934 -35.3304 -35.3292 -35.2879 -35.2860
   -12.5768 -12.5111 -12.4806 -12.4389  -5.8745  -5.7727  -5.6773  -5.6309
    -4.4003  -4.2395  -3.8062  -3.6214  -3.2310  -3.0880  -2.4238  -2.3222
    -0.7871  -0.7299   1.7896   1.9732   2.6780   2.7914   2.8365   2.9713
     4.2332   4.3640   6.5942   7.0426

          k = 0.0643 0.1855 0.0000 ( 12760 PWs)   bands (ev):

   -61.1773 -61.1345 -35.5450 -35.5025 -35.3409 -35.3256 -35.2984 -35.2825
   -12.4799 -12.4400 -12.4031 -12.3954  -5.9006  -5.8114  -5.8051  -5.7561
    -4.5143  -4.3497  -3.6953  -3.5836  -3.2514  -3.0961  -2.5674  -2.4719
    -0.6592  -0.5920   1.8387   1.8900   2.7592   2.8459   2.9498   3.0701
     4.2377   4.3866   6.3181   6.7637

          k = 0.0857 0.1484 0.0000 ( 12769 PWs)   bands (ev):

   -61.1788 -61.1361 -35.5158 -35.4734 -35.3535 -35.3287 -35.3111 -35.2856
   -12.5711 -12.5036 -12.4716 -12.4282  -5.7422  -5.6893  -5.6599  -5.5911
    -4.1709  -4.1130  -3.8228  -3.6576  -3.6003  -3.5837  -2.3890  -2.3019
    -0.7887  -0.7385   1.7106   1.9263   2.6117   2.6606   2.8191   2.9468
     4.3876   4.4844   7.0510   7.1782

          k = 0.0857 0.1731 0.0000 ( 12773 PWs)   bands (ev):

   -61.1759 -61.1331 -35.5108 -35.4683 -35.3909 -35.3484 -35.3230 -35.2798
   -12.4241 -12.3850 -12.3605 -12.3360  -5.9453  -5.9063  -5.5392  -5.4552
    -4.4353  -4.3181  -3.8975  -3.7818  -3.5993  -3.4815  -2.6558  -2.5660
    -0.5502  -0.4976   1.6590   1.7222   2.5832   2.6119   3.0699   3.2007
     4.5221   4.6029   6.6697   7.0808

          k = 0.1071 0.1855 0.0000 ( 12792 PWs)   bands (ev):

   -61.1748 -61.1320 -35.4838 -35.4413 -35.4305 -35.3880 -35.3208 -35.2777
   -12.3799 -12.3379 -12.3244 -12.2809  -6.0429  -6.0046  -5.2231  -5.1655
    -4.6380  -4.6339  -4.0255  -4.0044  -3.4616  -3.4234  -2.7978  -2.7035
    -0.4205  -0.3719   1.5341   1.5745   2.5161   2.5209   3.2503   3.2910
     4.6683   4.6770   6.7210   7.2569

     highest occupied, lowest unoccupied level (ev):    -0.1721    1.3029

!    total energy              =    -356.64979381 Ry
     estimated scf accuracy    <          9.1E-09 Ry

     The total energy is the sum of the following terms:
     one-electron contribution =   -6675.94021041 Ry
     hartree contribution      =    3338.37039062 Ry
     xc contribution           =     -49.50522853 Ry
     ewald contribution        =    3030.42525451 Ry

     convergence has been achieved in  12 iterations

     Forces acting on atoms (cartesian axes, Ry/au):

     atom    1 type  1   force =     0.00000000    0.00000000   -0.00071573
     atom    2 type  2   force =     0.00000000    0.00000000   -0.00085915
     atom    3 type  2   force =     0.00000000    0.00000000   -0.00367162
     atom    4 type  1   force =     0.00000000    0.00000000    0.00138911
     atom    5 type  2   force =     0.00000000    0.00000000    0.00335841
     atom    6 type  2   force =     0.00000000    0.00000000    0.00049898

     Total force =     0.005309     Total SCF correction =     0.000288

     Writing all to output data dir ./calc.save/

     init_run     :      2.45s CPU      1.99s WALL (       1 calls)
     electrons    :    205.95s CPU     70.49s WALL (       1 calls)
     forces       :      3.25s CPU      0.86s WALL (       1 calls)

     Called by init_run:
     wfcinit      :      1.70s CPU      1.05s WALL (       1 calls)
     potinit      :      0.05s CPU      0.05s WALL (       1 calls)
     hinit0       :      0.67s CPU      0.86s WALL (       1 calls)

     Called by electrons:
     c_bands      :    203.97s CPU     68.63s WALL (      12 calls)
     sum_band     :      1.86s CPU      1.76s WALL (      12 calls)
     v_of_rho     :      0.10s CPU      0.07s WALL (      13 calls)
     mix_rho      :      0.02s CPU      0.02s WALL (      12 calls)

     Called by c_bands:
     init_us_2    :      3.61s CPU      1.23s WALL (     702 calls)
     init_us_2:cp :      3.59s CPU      1.22s WALL (     702 calls)
     cegterg      :    196.82s CPU     66.69s WALL (     344 calls)

     Called by *egterg:
     cdiaghg      :    107.37s CPU     29.65s WALL (    2136 calls)
     h_psi        :     64.77s CPU     25.51s WALL (    2183 calls)
     g_psi        :      2.09s CPU      1.36s WALL (    1812 calls)

     Called by h_psi:
     h_psi:calbec :      2.43s CPU      1.83s WALL (    2183 calls)
     vloc_psi     :     52.79s CPU     20.06s WALL (    2183 calls)
     add_vuspsi   :      8.64s CPU      2.83s WALL (    2183 calls)

     General routines
     calbec       :      2.60s CPU      1.93s WALL (    2291 calls)
     fft          :      0.11s CPU      0.09s WALL (     131 calls)
     ffts         :      0.00s CPU      0.00s WALL (      12 calls)
     fftw         :     51.60s CPU     20.49s WALL (  102876 calls)

     Parallel routines

     PWSCF        :   3m31.91s CPU   1m14.38s WALL


   This run was terminated on:  18:14:59  27Jun2023            

=------------------------------------------------------------------------------=
   JOB DONE.
=------------------------------------------------------------------------------=
