
     Program PWSCF v.7.1 starts on 27Jun2023 at 18:15: 4 

     This program is part of the open-source Quantum ESPRESSO suite
     for quantum simulation of materials; please cite
         "P. Giannozzi et al., J. Phys.:Condens. Matter 21 395502 (2009);
         "P. Giannozzi et al., J. Phys.:Condens. Matter 29 465901 (2017);
         "P. Giannozzi et al., J. Chem. Phys. 152 154105 (2020);
          URL http://www.quantum-espresso.org", 
     in publications or presentations arising from this work. More details at
     http://www.quantum-espresso.org/quote

     Parallel version (MPI), running on    42 processors

     MPI processes distributed on     1 nodes
     557529 MiB available memory on the printing compute node when the environment starts

     Waiting for input...
     Reading input from standard input

     Current dimensions of program PWSCF are:
     Max number of different atomic species (ntypx) = 10
     Max number of k-points (npk) =  40000
     Max angular momentum in pseudopotentials (lmaxx) =  4
     Message from routine input:
     WARNING: "startingwfc" set to atomic+random may spoil restart
     Message from routine cell_base_init:
     DEPRECATED: use true lattice parameter, not A to a.u. conversion factor

     IMPORTANT: XC functional enforced from input :
     Exchange-correlation= PBE
                           (   1   4   3   4   0   0   0)
     Any further DFT definition will be discarded
     Please, verify this is what you really want

     Message from routine setup:
     using ibrav=0 with symmetry is DISCOURAGED, use correct ibrav instead

     R & G space division:  proc/nbgrp/npool/nimage =      42
     Subspace diagonalization in iterative solution of the eigenvalue problem:
     a serial algorithm will be used


     Parallelization info
     --------------------
     sticks:   dense  smooth     PW     G-vecs:    dense   smooth      PW
     Min          11      11      3                 2413     2413     419
     Max          12      12      4                 2456     2456     478
     Sum         475     475    151               102231   102231   18945

     Using Slab Decomposition



     bravais-lattice index     =            0
     lattice parameter (alat)  =       1.8897  a.u.
     unit-cell volume          =    2142.8036 (a.u.)^3
     number of atoms/cell      =            6
     number of atomic types    =            2
     number of electrons       =        52.00
     number of Kohn-Sham states=           36
     kinetic-energy cutoff     =      50.0000  Ry
     charge density cutoff     =     199.9999  Ry
     Exchange-correlation= PBE
                           (   1   4   3   4   0   0   0)

     celldm(1)=   1.889726  celldm(2)=   0.000000  celldm(3)=   0.000000
     celldm(4)=   0.000000  celldm(5)=   0.000000  celldm(6)=   0.000000

     crystal axes: (cart. coord. in units of alat)
               a(1) = (   3.112600   0.000000   0.000000 )  
               a(2) = (  -1.556300   2.695591   0.000000 )  
               a(3) = (   0.000000   0.000000  37.845000 )  

     reciprocal axes: (cart. coord. in units 2 pi/alat)
               b(1) = (  0.321275  0.185488 -0.000000 )  
               b(2) = (  0.000000  0.370976  0.000000 )  
               b(3) = (  0.000000 -0.000000  0.026424 )  


     PseudoPot. # 1 for Mo read from file:
     /ccs/home/dpalmer3/qe-7.1/pseudo/Mo.UPF
     MD5 check sum: e75ed155aa411dd1617a1e98b4cfb1d3
     Pseudo is Norm-conserving, Zval = 14.0
     Generated using ONCVPSP code by D. R. Hamann
     Using radial grid of  602 points,  6 beta functions with: 
                l(1) =   0
                l(2) =   0
                l(3) =   1
                l(4) =   1
                l(5) =   2
                l(6) =   2

     PseudoPot. # 2 for S  read from file:
     /ccs/home/dpalmer3/qe-7.1/pseudo/S.UPF
     MD5 check sum: bb66adc3f78a1ab6d878b9658eae71a4
     Pseudo is Norm-conserving, Zval =  6.0
     Generated using ONCVPSP code by D. R. Hamann
     Using radial grid of  602 points,  4 beta functions with: 
                l(1) =   0
                l(2) =   0
                l(3) =   1
                l(4) =   1

     atomic species   valence    mass     pseudopotential
        Mo1           14.00    95.95000     Mo( 1.00)
        S1             6.00    32.06000     S ( 1.00)

      6 Sym. Ops. (no inversion) found


                                    s                        frac. trans.

      isym =  1     identity                                     

 cryst.   s( 1) = (     1          0          0      )
                  (     0          1          0      )
                  (     0          0          1      )

 cart.    s( 1) = (  1.0000000  0.0000000  0.0000000 )
                  (  0.0000000  1.0000000  0.0000000 )
                  (  0.0000000  0.0000000  1.0000000 )


      isym =  2     120 deg rotation - cryst. axis [0,0,1]       

 cryst.   s( 2) = (     0          1          0      )
                  (    -1         -1          0      )
                  (     0          0          1      )

 cart.    s( 2) = ( -0.5000000 -0.8660254  0.0000000 )
                  (  0.8660254 -0.5000000  0.0000000 )
                  (  0.0000000  0.0000000  1.0000000 )


      isym =  3     120 deg rotation - cryst. axis [0,0,-1]      

 cryst.   s( 3) = (    -1         -1          0      )
                  (     1          0          0      )
                  (     0          0          1      )

 cart.    s( 3) = ( -0.5000000  0.8660254  0.0000000 )
                  ( -0.8660254 -0.5000000  0.0000000 )
                  (  0.0000000  0.0000000  1.0000000 )


      isym =  4     inv. 180 deg rotation - cart. axis [1,0,0]   

 cryst.   s( 4) = (    -1          0          0      )
                  (     1          1          0      )
                  (     0          0          1      )

 cart.    s( 4) = ( -1.0000000  0.0000000  0.0000000 )
                  (  0.0000000  1.0000000  0.0000000 )
                  (  0.0000000  0.0000000  1.0000000 )


      isym =  5     inv. 180 deg rotation - cryst. axis [0,1,0]  

 cryst.   s( 5) = (     1          1          0      )
                  (     0         -1          0      )
                  (     0          0          1      )

 cart.    s( 5) = (  0.5000000  0.8660254  0.0000000 )
                  (  0.8660254 -0.5000000  0.0000000 )
                  (  0.0000000  0.0000000  1.0000000 )


      isym =  6     inv. 180 deg rotation - cryst. axis [1,1,0]  

 cryst.   s( 6) = (     0         -1          0      )
                  (    -1          0          0      )
                  (     0          0          1      )

 cart.    s( 6) = (  0.5000000 -0.8660254  0.0000000 )
                  ( -0.8660254 -0.5000000  0.0000000 )
                  (  0.0000000  0.0000000  1.0000000 )


   Cartesian axes

     site n.     atom                  positions (alat units)
         1           Mo1 tau(   1) = (   0.0000000   0.0000000  11.5850000  )
         2           S1  tau(   2) = (   1.5563000   0.8985302  13.1700000  )
         3           S1  tau(   3) = (   1.5563000   0.8985302  10.0000000  )
         4           Mo1 tau(   4) = (   1.5563000   0.8985302  17.8450000  )
         5           S1  tau(   5) = (  -0.0000000   1.7970604  19.4300000  )
         6           S1  tau(   6) = (  -0.0000000   1.7970604  16.2600000  )

   Crystallographic axes

     site n.     atom                  positions (cryst. coord.)
         1           Mo1 tau(   1) = (  0.0000000  0.0000000  0.3061171  )
         2           S1  tau(   2) = (  0.6666667  0.3333333  0.3479984  )
         3           S1  tau(   3) = (  0.6666667  0.3333333  0.2642357  )
         4           Mo1 tau(   4) = (  0.6666667  0.3333333  0.4715286  )
         5           S1  tau(   5) = (  0.3333333  0.6666667  0.5134100  )
         6           S1  tau(   6) = (  0.3333333  0.6666667  0.4296472  )

     number of k points=   225
                       cart. coord. in units 2pi/alat
        k(    1) = (  -0.1499282  -0.2596833   0.0000000), wk =   0.0088889
        k(    2) = (  -0.1499282  -0.2349516   0.0000000), wk =   0.0088889
        k(    3) = (  -0.1499282  -0.2102198   0.0000000), wk =   0.0088889
        k(    4) = (  -0.1499282  -0.1854881   0.0000000), wk =   0.0088889
        k(    5) = (  -0.1499282  -0.1607564   0.0000000), wk =   0.0088889
        k(    6) = (  -0.1499282  -0.1360246   0.0000000), wk =   0.0088889
        k(    7) = (  -0.1499282  -0.1112929   0.0000000), wk =   0.0088889
        k(    8) = (  -0.1499282  -0.0865611   0.0000000), wk =   0.0088889
        k(    9) = (  -0.1499282  -0.0618294   0.0000000), wk =   0.0088889
        k(   10) = (  -0.1499282  -0.0370976   0.0000000), wk =   0.0088889
        k(   11) = (  -0.1499282  -0.0123659   0.0000000), wk =   0.0088889
        k(   12) = (  -0.1499282   0.0123659   0.0000000), wk =   0.0088889
        k(   13) = (  -0.1499282   0.0370976   0.0000000), wk =   0.0088889
        k(   14) = (  -0.1499282   0.0618294   0.0000000), wk =   0.0088889
        k(   15) = (  -0.1499282   0.0865611   0.0000000), wk =   0.0088889
        k(   16) = (  -0.1285099  -0.2473175   0.0000000), wk =   0.0088889
        k(   17) = (  -0.1285099  -0.2225857   0.0000000), wk =   0.0088889
        k(   18) = (  -0.1285099  -0.1978540   0.0000000), wk =   0.0088889
        k(   19) = (  -0.1285099  -0.1731222   0.0000000), wk =   0.0088889
        k(   20) = (  -0.1285099  -0.1483905   0.0000000), wk =   0.0088889
        k(   21) = (  -0.1285099  -0.1236587   0.0000000), wk =   0.0088889
        k(   22) = (  -0.1285099  -0.0989270   0.0000000), wk =   0.0088889
        k(   23) = (  -0.1285099  -0.0741952   0.0000000), wk =   0.0088889
        k(   24) = (  -0.1285099  -0.0494635   0.0000000), wk =   0.0088889
        k(   25) = (  -0.1285099  -0.0247317   0.0000000), wk =   0.0088889
        k(   26) = (  -0.1285099   0.0000000   0.0000000), wk =   0.0088889
        k(   27) = (  -0.1285099   0.0247317   0.0000000), wk =   0.0088889
        k(   28) = (  -0.1285099   0.0494635   0.0000000), wk =   0.0088889
        k(   29) = (  -0.1285099   0.0741952   0.0000000), wk =   0.0088889
        k(   30) = (  -0.1285099   0.0989270   0.0000000), wk =   0.0088889
        k(   31) = (  -0.1070916  -0.2349516   0.0000000), wk =   0.0088889
        k(   32) = (  -0.1070916  -0.2102198   0.0000000), wk =   0.0088889
        k(   33) = (  -0.1070916  -0.1854881   0.0000000), wk =   0.0088889
        k(   34) = (  -0.1070916  -0.1607564   0.0000000), wk =   0.0088889
        k(   35) = (  -0.1070916  -0.1360246   0.0000000), wk =   0.0088889
        k(   36) = (  -0.1070916  -0.1112929   0.0000000), wk =   0.0088889
        k(   37) = (  -0.1070916  -0.0865611   0.0000000), wk =   0.0088889
        k(   38) = (  -0.1070916  -0.0618294   0.0000000), wk =   0.0088889
        k(   39) = (  -0.1070916  -0.0370976   0.0000000), wk =   0.0088889
        k(   40) = (  -0.1070916  -0.0123659   0.0000000), wk =   0.0088889
        k(   41) = (  -0.1070916   0.0123659   0.0000000), wk =   0.0088889
        k(   42) = (  -0.1070916   0.0370976   0.0000000), wk =   0.0088889
        k(   43) = (  -0.1070916   0.0618294   0.0000000), wk =   0.0088889
        k(   44) = (  -0.1070916   0.0865611   0.0000000), wk =   0.0088889
        k(   45) = (  -0.1070916   0.1112929   0.0000000), wk =   0.0088889
        k(   46) = (  -0.0856733  -0.2225857   0.0000000), wk =   0.0088889
        k(   47) = (  -0.0856733  -0.1978540   0.0000000), wk =   0.0088889
        k(   48) = (  -0.0856733  -0.1731222   0.0000000), wk =   0.0088889
        k(   49) = (  -0.0856733  -0.1483905   0.0000000), wk =   0.0088889
        k(   50) = (  -0.0856733  -0.1236587   0.0000000), wk =   0.0088889
        k(   51) = (  -0.0856733  -0.0989270   0.0000000), wk =   0.0088889
        k(   52) = (  -0.0856733  -0.0741952   0.0000000), wk =   0.0088889
        k(   53) = (  -0.0856733  -0.0494635   0.0000000), wk =   0.0088889
        k(   54) = (  -0.0856733  -0.0247317   0.0000000), wk =   0.0088889
        k(   55) = (  -0.0856733  -0.0000000   0.0000000), wk =   0.0088889
        k(   56) = (  -0.0856733   0.0247317   0.0000000), wk =   0.0088889
        k(   57) = (  -0.0856733   0.0494635   0.0000000), wk =   0.0088889
        k(   58) = (  -0.0856733   0.0741952   0.0000000), wk =   0.0088889
        k(   59) = (  -0.0856733   0.0989270   0.0000000), wk =   0.0088889
        k(   60) = (  -0.0856733   0.1236587   0.0000000), wk =   0.0088889
        k(   61) = (  -0.0642550  -0.2102198   0.0000000), wk =   0.0088889
        k(   62) = (  -0.0642550  -0.1854881   0.0000000), wk =   0.0088889
        k(   63) = (  -0.0642550  -0.1607564   0.0000000), wk =   0.0088889
        k(   64) = (  -0.0642550  -0.1360246   0.0000000), wk =   0.0088889
        k(   65) = (  -0.0642550  -0.1112929   0.0000000), wk =   0.0088889
        k(   66) = (  -0.0642550  -0.0865611   0.0000000), wk =   0.0088889
        k(   67) = (  -0.0642550  -0.0618294   0.0000000), wk =   0.0088889
        k(   68) = (  -0.0642550  -0.0370976   0.0000000), wk =   0.0088889
        k(   69) = (  -0.0642550  -0.0123659   0.0000000), wk =   0.0088889
        k(   70) = (  -0.0642550   0.0123659   0.0000000), wk =   0.0088889
        k(   71) = (  -0.0642550   0.0370976   0.0000000), wk =   0.0088889
        k(   72) = (  -0.0642550   0.0618294   0.0000000), wk =   0.0088889
        k(   73) = (  -0.0642550   0.0865611   0.0000000), wk =   0.0088889
        k(   74) = (  -0.0642550   0.1112929   0.0000000), wk =   0.0088889
        k(   75) = (  -0.0642550   0.1360246   0.0000000), wk =   0.0088889
        k(   76) = (  -0.0428366  -0.1978540   0.0000000), wk =   0.0088889
        k(   77) = (  -0.0428366  -0.1731222   0.0000000), wk =   0.0088889
        k(   78) = (  -0.0428366  -0.1483905   0.0000000), wk =   0.0088889
        k(   79) = (  -0.0428366  -0.1236587   0.0000000), wk =   0.0088889
        k(   80) = (  -0.0428366  -0.0989270   0.0000000), wk =   0.0088889
        k(   81) = (  -0.0428366  -0.0741952   0.0000000), wk =   0.0088889
        k(   82) = (  -0.0428366  -0.0494635   0.0000000), wk =   0.0088889
        k(   83) = (  -0.0428366  -0.0247317   0.0000000), wk =   0.0088889
        k(   84) = (  -0.0428366  -0.0000000   0.0000000), wk =   0.0088889
        k(   85) = (  -0.0428366   0.0247317   0.0000000), wk =   0.0088889
        k(   86) = (  -0.0428366   0.0494635   0.0000000), wk =   0.0088889
        k(   87) = (  -0.0428366   0.0741952   0.0000000), wk =   0.0088889
        k(   88) = (  -0.0428366   0.0989270   0.0000000), wk =   0.0088889
        k(   89) = (  -0.0428366   0.1236587   0.0000000), wk =   0.0088889
        k(   90) = (  -0.0428366   0.1483905   0.0000000), wk =   0.0088889
        k(   91) = (  -0.0214183  -0.1854881   0.0000000), wk =   0.0088889
        k(   92) = (  -0.0214183  -0.1607564   0.0000000), wk =   0.0088889
        k(   93) = (  -0.0214183  -0.1360246   0.0000000), wk =   0.0088889
        k(   94) = (  -0.0214183  -0.1112929   0.0000000), wk =   0.0088889
        k(   95) = (  -0.0214183  -0.0865611   0.0000000), wk =   0.0088889
        k(   96) = (  -0.0214183  -0.0618294   0.0000000), wk =   0.0088889
        k(   97) = (  -0.0214183  -0.0370976   0.0000000), wk =   0.0088889
        k(   98) = (  -0.0214183  -0.0123659   0.0000000), wk =   0.0088889
        k(   99) = (  -0.0214183   0.0123659   0.0000000), wk =   0.0088889
        k(  100) = (  -0.0214183   0.0370976   0.0000000), wk =   0.0088889
        k(  101) = (  -0.0214183   0.0618294   0.0000000), wk =   0.0088889
        k(  102) = (  -0.0214183   0.0865611   0.0000000), wk =   0.0088889
        k(  103) = (  -0.0214183   0.1112929   0.0000000), wk =   0.0088889
        k(  104) = (  -0.0214183   0.1360246   0.0000000), wk =   0.0088889
        k(  105) = (  -0.0214183   0.1607564   0.0000000), wk =   0.0088889
        k(  106) = (   0.0000000  -0.1731222   0.0000000), wk =   0.0088889
        k(  107) = (   0.0000000  -0.1483905   0.0000000), wk =   0.0088889
        k(  108) = (   0.0000000  -0.1236587   0.0000000), wk =   0.0088889
        k(  109) = (   0.0000000  -0.0989270   0.0000000), wk =   0.0088889
        k(  110) = (   0.0000000  -0.0741952   0.0000000), wk =   0.0088889
        k(  111) = (   0.0000000  -0.0494635   0.0000000), wk =   0.0088889
        k(  112) = (   0.0000000  -0.0247317   0.0000000), wk =   0.0088889
        k(  113) = (   0.0000000   0.0000000   0.0000000), wk =   0.0088889
        k(  114) = (   0.0000000   0.0247317   0.0000000), wk =   0.0088889
        k(  115) = (   0.0000000   0.0494635   0.0000000), wk =   0.0088889
        k(  116) = (   0.0000000   0.0741952   0.0000000), wk =   0.0088889
        k(  117) = (   0.0000000   0.0989270   0.0000000), wk =   0.0088889
        k(  118) = (   0.0000000   0.1236587   0.0000000), wk =   0.0088889
        k(  119) = (   0.0000000   0.1483905   0.0000000), wk =   0.0088889
        k(  120) = (   0.0000000   0.1731222   0.0000000), wk =   0.0088889
        k(  121) = (   0.0214183  -0.1607564   0.0000000), wk =   0.0088889
        k(  122) = (   0.0214183  -0.1360246   0.0000000), wk =   0.0088889
        k(  123) = (   0.0214183  -0.1112929   0.0000000), wk =   0.0088889
        k(  124) = (   0.0214183  -0.0865611   0.0000000), wk =   0.0088889
        k(  125) = (   0.0214183  -0.0618294   0.0000000), wk =   0.0088889
        k(  126) = (   0.0214183  -0.0370976   0.0000000), wk =   0.0088889
        k(  127) = (   0.0214183  -0.0123659   0.0000000), wk =   0.0088889
        k(  128) = (   0.0214183   0.0123659   0.0000000), wk =   0.0088889
        k(  129) = (   0.0214183   0.0370976   0.0000000), wk =   0.0088889
        k(  130) = (   0.0214183   0.0618294   0.0000000), wk =   0.0088889
        k(  131) = (   0.0214183   0.0865611   0.0000000), wk =   0.0088889
        k(  132) = (   0.0214183   0.1112929   0.0000000), wk =   0.0088889
        k(  133) = (   0.0214183   0.1360246   0.0000000), wk =   0.0088889
        k(  134) = (   0.0214183   0.1607564   0.0000000), wk =   0.0088889
        k(  135) = (   0.0214183   0.1854881   0.0000000), wk =   0.0088889
        k(  136) = (   0.0428366  -0.1483905   0.0000000), wk =   0.0088889
        k(  137) = (   0.0428366  -0.1236587   0.0000000), wk =   0.0088889
        k(  138) = (   0.0428366  -0.0989270   0.0000000), wk =   0.0088889
        k(  139) = (   0.0428366  -0.0741952   0.0000000), wk =   0.0088889
        k(  140) = (   0.0428366  -0.0494635   0.0000000), wk =   0.0088889
        k(  141) = (   0.0428366  -0.0247317   0.0000000), wk =   0.0088889
        k(  142) = (   0.0428366   0.0000000   0.0000000), wk =   0.0088889
        k(  143) = (   0.0428366   0.0247317   0.0000000), wk =   0.0088889
        k(  144) = (   0.0428366   0.0494635   0.0000000), wk =   0.0088889
        k(  145) = (   0.0428366   0.0741952   0.0000000), wk =   0.0088889
        k(  146) = (   0.0428366   0.0989270   0.0000000), wk =   0.0088889
        k(  147) = (   0.0428366   0.1236587   0.0000000), wk =   0.0088889
        k(  148) = (   0.0428366   0.1483905   0.0000000), wk =   0.0088889
        k(  149) = (   0.0428366   0.1731222   0.0000000), wk =   0.0088889
        k(  150) = (   0.0428366   0.1978540   0.0000000), wk =   0.0088889
        k(  151) = (   0.0642550  -0.1360246   0.0000000), wk =   0.0088889
        k(  152) = (   0.0642550  -0.1112929   0.0000000), wk =   0.0088889
        k(  153) = (   0.0642550  -0.0865611   0.0000000), wk =   0.0088889
        k(  154) = (   0.0642550  -0.0618294   0.0000000), wk =   0.0088889
        k(  155) = (   0.0642550  -0.0370976   0.0000000), wk =   0.0088889
        k(  156) = (   0.0642550  -0.0123659   0.0000000), wk =   0.0088889
        k(  157) = (   0.0642550   0.0123659   0.0000000), wk =   0.0088889
        k(  158) = (   0.0642550   0.0370976   0.0000000), wk =   0.0088889
        k(  159) = (   0.0642550   0.0618294   0.0000000), wk =   0.0088889
        k(  160) = (   0.0642550   0.0865611   0.0000000), wk =   0.0088889
        k(  161) = (   0.0642550   0.1112929   0.0000000), wk =   0.0088889
        k(  162) = (   0.0642550   0.1360246   0.0000000), wk =   0.0088889
        k(  163) = (   0.0642550   0.1607564   0.0000000), wk =   0.0088889
        k(  164) = (   0.0642550   0.1854881   0.0000000), wk =   0.0088889
        k(  165) = (   0.0642550   0.2102198   0.0000000), wk =   0.0088889
        k(  166) = (   0.0856733  -0.1236587   0.0000000), wk =   0.0088889
        k(  167) = (   0.0856733  -0.0989270   0.0000000), wk =   0.0088889
        k(  168) = (   0.0856733  -0.0741952   0.0000000), wk =   0.0088889
        k(  169) = (   0.0856733  -0.0494635   0.0000000), wk =   0.0088889
        k(  170) = (   0.0856733  -0.0247317   0.0000000), wk =   0.0088889
        k(  171) = (   0.0856733  -0.0000000   0.0000000), wk =   0.0088889
        k(  172) = (   0.0856733   0.0247317   0.0000000), wk =   0.0088889
        k(  173) = (   0.0856733   0.0494635   0.0000000), wk =   0.0088889
        k(  174) = (   0.0856733   0.0741952   0.0000000), wk =   0.0088889
        k(  175) = (   0.0856733   0.0989270   0.0000000), wk =   0.0088889
        k(  176) = (   0.0856733   0.1236587   0.0000000), wk =   0.0088889
        k(  177) = (   0.0856733   0.1483905   0.0000000), wk =   0.0088889
        k(  178) = (   0.0856733   0.1731222   0.0000000), wk =   0.0088889
        k(  179) = (   0.0856733   0.1978540   0.0000000), wk =   0.0088889
        k(  180) = (   0.0856733   0.2225857   0.0000000), wk =   0.0088889
        k(  181) = (   0.1070916  -0.1112929   0.0000000), wk =   0.0088889
        k(  182) = (   0.1070916  -0.0865611   0.0000000), wk =   0.0088889
        k(  183) = (   0.1070916  -0.0618294   0.0000000), wk =   0.0088889
        k(  184) = (   0.1070916  -0.0370976   0.0000000), wk =   0.0088889
        k(  185) = (   0.1070916  -0.0123659   0.0000000), wk =   0.0088889
        k(  186) = (   0.1070916   0.0123659   0.0000000), wk =   0.0088889
        k(  187) = (   0.1070916   0.0370976   0.0000000), wk =   0.0088889
        k(  188) = (   0.1070916   0.0618294   0.0000000), wk =   0.0088889
        k(  189) = (   0.1070916   0.0865611   0.0000000), wk =   0.0088889
        k(  190) = (   0.1070916   0.1112929   0.0000000), wk =   0.0088889
        k(  191) = (   0.1070916   0.1360246   0.0000000), wk =   0.0088889
        k(  192) = (   0.1070916   0.1607564   0.0000000), wk =   0.0088889
        k(  193) = (   0.1070916   0.1854881   0.0000000), wk =   0.0088889
        k(  194) = (   0.1070916   0.2102198   0.0000000), wk =   0.0088889
        k(  195) = (   0.1070916   0.2349516   0.0000000), wk =   0.0088889
        k(  196) = (   0.1285099  -0.0989270   0.0000000), wk =   0.0088889
        k(  197) = (   0.1285099  -0.0741952   0.0000000), wk =   0.0088889
        k(  198) = (   0.1285099  -0.0494635   0.0000000), wk =   0.0088889
        k(  199) = (   0.1285099  -0.0247317   0.0000000), wk =   0.0088889
        k(  200) = (   0.1285099  -0.0000000   0.0000000), wk =   0.0088889
        k(  201) = (   0.1285099   0.0247317   0.0000000), wk =   0.0088889
        k(  202) = (   0.1285099   0.0494635   0.0000000), wk =   0.0088889
        k(  203) = (   0.1285099   0.0741952   0.0000000), wk =   0.0088889
        k(  204) = (   0.1285099   0.0989270   0.0000000), wk =   0.0088889
        k(  205) = (   0.1285099   0.1236587   0.0000000), wk =   0.0088889
        k(  206) = (   0.1285099   0.1483905   0.0000000), wk =   0.0088889
        k(  207) = (   0.1285099   0.1731222   0.0000000), wk =   0.0088889
        k(  208) = (   0.1285099   0.1978540   0.0000000), wk =   0.0088889
        k(  209) = (   0.1285099   0.2225857   0.0000000), wk =   0.0088889
        k(  210) = (   0.1285099   0.2473175   0.0000000), wk =   0.0088889
        k(  211) = (   0.1499282  -0.0865611   0.0000000), wk =   0.0088889
        k(  212) = (   0.1499282  -0.0618294   0.0000000), wk =   0.0088889
        k(  213) = (   0.1499282  -0.0370976   0.0000000), wk =   0.0088889
        k(  214) = (   0.1499282  -0.0123659   0.0000000), wk =   0.0088889
        k(  215) = (   0.1499282   0.0123659   0.0000000), wk =   0.0088889
        k(  216) = (   0.1499282   0.0370976   0.0000000), wk =   0.0088889
        k(  217) = (   0.1499282   0.0618294   0.0000000), wk =   0.0088889
        k(  218) = (   0.1499282   0.0865611   0.0000000), wk =   0.0088889
        k(  219) = (   0.1499282   0.1112929   0.0000000), wk =   0.0088889
        k(  220) = (   0.1499282   0.1360246   0.0000000), wk =   0.0088889
        k(  221) = (   0.1499282   0.1607564   0.0000000), wk =   0.0088889
        k(  222) = (   0.1499282   0.1854881   0.0000000), wk =   0.0088889
        k(  223) = (   0.1499282   0.2102198   0.0000000), wk =   0.0088889
        k(  224) = (   0.1499282   0.2349516   0.0000000), wk =   0.0088889
        k(  225) = (   0.1499282   0.2596833   0.0000000), wk =   0.0088889

                       cryst. coord.
        k(    1) = (  -0.4666667  -0.4666667   0.0000000), wk =   0.0088889
        k(    2) = (  -0.4666667  -0.4000000   0.0000000), wk =   0.0088889
        k(    3) = (  -0.4666667  -0.3333333   0.0000000), wk =   0.0088889
        k(    4) = (  -0.4666667  -0.2666667   0.0000000), wk =   0.0088889
        k(    5) = (  -0.4666667  -0.2000000   0.0000000), wk =   0.0088889
        k(    6) = (  -0.4666667  -0.1333333   0.0000000), wk =   0.0088889
        k(    7) = (  -0.4666667  -0.0666667   0.0000000), wk =   0.0088889
        k(    8) = (  -0.4666667   0.0000000   0.0000000), wk =   0.0088889
        k(    9) = (  -0.4666667   0.0666667   0.0000000), wk =   0.0088889
        k(   10) = (  -0.4666667   0.1333333   0.0000000), wk =   0.0088889
        k(   11) = (  -0.4666667   0.2000000   0.0000000), wk =   0.0088889
        k(   12) = (  -0.4666667   0.2666667   0.0000000), wk =   0.0088889
        k(   13) = (  -0.4666667   0.3333333   0.0000000), wk =   0.0088889
        k(   14) = (  -0.4666667   0.4000000   0.0000000), wk =   0.0088889
        k(   15) = (  -0.4666667   0.4666667   0.0000000), wk =   0.0088889
        k(   16) = (  -0.4000000  -0.4666667   0.0000000), wk =   0.0088889
        k(   17) = (  -0.4000000  -0.4000000   0.0000000), wk =   0.0088889
        k(   18) = (  -0.4000000  -0.3333333   0.0000000), wk =   0.0088889
        k(   19) = (  -0.4000000  -0.2666667   0.0000000), wk =   0.0088889
        k(   20) = (  -0.4000000  -0.2000000   0.0000000), wk =   0.0088889
        k(   21) = (  -0.4000000  -0.1333333   0.0000000), wk =   0.0088889
        k(   22) = (  -0.4000000  -0.0666667   0.0000000), wk =   0.0088889
        k(   23) = (  -0.4000000   0.0000000   0.0000000), wk =   0.0088889
        k(   24) = (  -0.4000000   0.0666667   0.0000000), wk =   0.0088889
        k(   25) = (  -0.4000000   0.1333333   0.0000000), wk =   0.0088889
        k(   26) = (  -0.4000000   0.2000000   0.0000000), wk =   0.0088889
        k(   27) = (  -0.4000000   0.2666667   0.0000000), wk =   0.0088889
        k(   28) = (  -0.4000000   0.3333333   0.0000000), wk =   0.0088889
        k(   29) = (  -0.4000000   0.4000000   0.0000000), wk =   0.0088889
        k(   30) = (  -0.4000000   0.4666667   0.0000000), wk =   0.0088889
        k(   31) = (  -0.3333333  -0.4666667   0.0000000), wk =   0.0088889
        k(   32) = (  -0.3333333  -0.4000000   0.0000000), wk =   0.0088889
        k(   33) = (  -0.3333333  -0.3333333   0.0000000), wk =   0.0088889
        k(   34) = (  -0.3333333  -0.2666667   0.0000000), wk =   0.0088889
        k(   35) = (  -0.3333333  -0.2000000   0.0000000), wk =   0.0088889
        k(   36) = (  -0.3333333  -0.1333333   0.0000000), wk =   0.0088889
        k(   37) = (  -0.3333333  -0.0666667   0.0000000), wk =   0.0088889
        k(   38) = (  -0.3333333  -0.0000000   0.0000000), wk =   0.0088889
        k(   39) = (  -0.3333333   0.0666667   0.0000000), wk =   0.0088889
        k(   40) = (  -0.3333333   0.1333333   0.0000000), wk =   0.0088889
        k(   41) = (  -0.3333333   0.2000000   0.0000000), wk =   0.0088889
        k(   42) = (  -0.3333333   0.2666667   0.0000000), wk =   0.0088889
        k(   43) = (  -0.3333333   0.3333333   0.0000000), wk =   0.0088889
        k(   44) = (  -0.3333333   0.4000000   0.0000000), wk =   0.0088889
        k(   45) = (  -0.3333333   0.4666667   0.0000000), wk =   0.0088889
        k(   46) = (  -0.2666667  -0.4666667   0.0000000), wk =   0.0088889
        k(   47) = (  -0.2666667  -0.4000000   0.0000000), wk =   0.0088889
        k(   48) = (  -0.2666667  -0.3333333   0.0000000), wk =   0.0088889
        k(   49) = (  -0.2666667  -0.2666667   0.0000000), wk =   0.0088889
        k(   50) = (  -0.2666667  -0.2000000   0.0000000), wk =   0.0088889
        k(   51) = (  -0.2666667  -0.1333333   0.0000000), wk =   0.0088889
        k(   52) = (  -0.2666667  -0.0666667   0.0000000), wk =   0.0088889
        k(   53) = (  -0.2666667  -0.0000000   0.0000000), wk =   0.0088889
        k(   54) = (  -0.2666667   0.0666667   0.0000000), wk =   0.0088889
        k(   55) = (  -0.2666667   0.1333333   0.0000000), wk =   0.0088889
        k(   56) = (  -0.2666667   0.2000000   0.0000000), wk =   0.0088889
        k(   57) = (  -0.2666667   0.2666667   0.0000000), wk =   0.0088889
        k(   58) = (  -0.2666667   0.3333333   0.0000000), wk =   0.0088889
        k(   59) = (  -0.2666667   0.4000000   0.0000000), wk =   0.0088889
        k(   60) = (  -0.2666667   0.4666667   0.0000000), wk =   0.0088889
        k(   61) = (  -0.2000000  -0.4666667   0.0000000), wk =   0.0088889
        k(   62) = (  -0.2000000  -0.4000000   0.0000000), wk =   0.0088889
        k(   63) = (  -0.2000000  -0.3333333   0.0000000), wk =   0.0088889
        k(   64) = (  -0.2000000  -0.2666667   0.0000000), wk =   0.0088889
        k(   65) = (  -0.2000000  -0.2000000   0.0000000), wk =   0.0088889
        k(   66) = (  -0.2000000  -0.1333333   0.0000000), wk =   0.0088889
        k(   67) = (  -0.2000000  -0.0666667   0.0000000), wk =   0.0088889
        k(   68) = (  -0.2000000   0.0000000   0.0000000), wk =   0.0088889
        k(   69) = (  -0.2000000   0.0666667   0.0000000), wk =   0.0088889
        k(   70) = (  -0.2000000   0.1333333   0.0000000), wk =   0.0088889
        k(   71) = (  -0.2000000   0.2000000   0.0000000), wk =   0.0088889
        k(   72) = (  -0.2000000   0.2666667   0.0000000), wk =   0.0088889
        k(   73) = (  -0.2000000   0.3333333   0.0000000), wk =   0.0088889
        k(   74) = (  -0.2000000   0.4000000   0.0000000), wk =   0.0088889
        k(   75) = (  -0.2000000   0.4666667   0.0000000), wk =   0.0088889
        k(   76) = (  -0.1333333  -0.4666667   0.0000000), wk =   0.0088889
        k(   77) = (  -0.1333333  -0.4000000   0.0000000), wk =   0.0088889
        k(   78) = (  -0.1333333  -0.3333333   0.0000000), wk =   0.0088889
        k(   79) = (  -0.1333333  -0.2666667   0.0000000), wk =   0.0088889
        k(   80) = (  -0.1333333  -0.2000000   0.0000000), wk =   0.0088889
        k(   81) = (  -0.1333333  -0.1333333   0.0000000), wk =   0.0088889
        k(   82) = (  -0.1333333  -0.0666667   0.0000000), wk =   0.0088889
        k(   83) = (  -0.1333333   0.0000000   0.0000000), wk =   0.0088889
        k(   84) = (  -0.1333333   0.0666667   0.0000000), wk =   0.0088889
        k(   85) = (  -0.1333333   0.1333333   0.0000000), wk =   0.0088889
        k(   86) = (  -0.1333333   0.2000000   0.0000000), wk =   0.0088889
        k(   87) = (  -0.1333333   0.2666667   0.0000000), wk =   0.0088889
        k(   88) = (  -0.1333333   0.3333333   0.0000000), wk =   0.0088889
        k(   89) = (  -0.1333333   0.4000000   0.0000000), wk =   0.0088889
        k(   90) = (  -0.1333333   0.4666667   0.0000000), wk =   0.0088889
        k(   91) = (  -0.0666667  -0.4666667   0.0000000), wk =   0.0088889
        k(   92) = (  -0.0666667  -0.4000000   0.0000000), wk =   0.0088889
        k(   93) = (  -0.0666667  -0.3333333   0.0000000), wk =   0.0088889
        k(   94) = (  -0.0666667  -0.2666667   0.0000000), wk =   0.0088889
        k(   95) = (  -0.0666667  -0.2000000   0.0000000), wk =   0.0088889
        k(   96) = (  -0.0666667  -0.1333333   0.0000000), wk =   0.0088889
        k(   97) = (  -0.0666667  -0.0666667   0.0000000), wk =   0.0088889
        k(   98) = (  -0.0666667   0.0000000   0.0000000), wk =   0.0088889
        k(   99) = (  -0.0666667   0.0666667   0.0000000), wk =   0.0088889
        k(  100) = (  -0.0666667   0.1333333   0.0000000), wk =   0.0088889
        k(  101) = (  -0.0666667   0.2000000   0.0000000), wk =   0.0088889
        k(  102) = (  -0.0666667   0.2666667   0.0000000), wk =   0.0088889
        k(  103) = (  -0.0666667   0.3333333   0.0000000), wk =   0.0088889
        k(  104) = (  -0.0666667   0.4000000   0.0000000), wk =   0.0088889
        k(  105) = (  -0.0666667   0.4666667   0.0000000), wk =   0.0088889
        k(  106) = (   0.0000000  -0.4666667   0.0000000), wk =   0.0088889
        k(  107) = (   0.0000000  -0.4000000   0.0000000), wk =   0.0088889
        k(  108) = (   0.0000000  -0.3333333   0.0000000), wk =   0.0088889
        k(  109) = (   0.0000000  -0.2666667   0.0000000), wk =   0.0088889
        k(  110) = (   0.0000000  -0.2000000   0.0000000), wk =   0.0088889
        k(  111) = (   0.0000000  -0.1333333   0.0000000), wk =   0.0088889
        k(  112) = (   0.0000000  -0.0666667   0.0000000), wk =   0.0088889
        k(  113) = (   0.0000000   0.0000000   0.0000000), wk =   0.0088889
        k(  114) = (   0.0000000   0.0666667   0.0000000), wk =   0.0088889
        k(  115) = (   0.0000000   0.1333333   0.0000000), wk =   0.0088889
        k(  116) = (   0.0000000   0.2000000   0.0000000), wk =   0.0088889
        k(  117) = (   0.0000000   0.2666667   0.0000000), wk =   0.0088889
        k(  118) = (   0.0000000   0.3333333   0.0000000), wk =   0.0088889
        k(  119) = (   0.0000000   0.4000000   0.0000000), wk =   0.0088889
        k(  120) = (   0.0000000   0.4666667   0.0000000), wk =   0.0088889
        k(  121) = (   0.0666667  -0.4666667   0.0000000), wk =   0.0088889
        k(  122) = (   0.0666667  -0.4000000   0.0000000), wk =   0.0088889
        k(  123) = (   0.0666667  -0.3333333   0.0000000), wk =   0.0088889
        k(  124) = (   0.0666667  -0.2666667   0.0000000), wk =   0.0088889
        k(  125) = (   0.0666667  -0.2000000   0.0000000), wk =   0.0088889
        k(  126) = (   0.0666667  -0.1333333   0.0000000), wk =   0.0088889
        k(  127) = (   0.0666667  -0.0666667   0.0000000), wk =   0.0088889
        k(  128) = (   0.0666667  -0.0000000   0.0000000), wk =   0.0088889
        k(  129) = (   0.0666667   0.0666667   0.0000000), wk =   0.0088889
        k(  130) = (   0.0666667   0.1333333   0.0000000), wk =   0.0088889
        k(  131) = (   0.0666667   0.2000000   0.0000000), wk =   0.0088889
        k(  132) = (   0.0666667   0.2666667   0.0000000), wk =   0.0088889
        k(  133) = (   0.0666667   0.3333333   0.0000000), wk =   0.0088889
        k(  134) = (   0.0666667   0.4000000   0.0000000), wk =   0.0088889
        k(  135) = (   0.0666667   0.4666667   0.0000000), wk =   0.0088889
        k(  136) = (   0.1333333  -0.4666667   0.0000000), wk =   0.0088889
        k(  137) = (   0.1333333  -0.4000000   0.0000000), wk =   0.0088889
        k(  138) = (   0.1333333  -0.3333333   0.0000000), wk =   0.0088889
        k(  139) = (   0.1333333  -0.2666667   0.0000000), wk =   0.0088889
        k(  140) = (   0.1333333  -0.2000000   0.0000000), wk =   0.0088889
        k(  141) = (   0.1333333  -0.1333333   0.0000000), wk =   0.0088889
        k(  142) = (   0.1333333  -0.0666667   0.0000000), wk =   0.0088889
        k(  143) = (   0.1333333  -0.0000000   0.0000000), wk =   0.0088889
        k(  144) = (   0.1333333   0.0666667   0.0000000), wk =   0.0088889
        k(  145) = (   0.1333333   0.1333333   0.0000000), wk =   0.0088889
        k(  146) = (   0.1333333   0.2000000   0.0000000), wk =   0.0088889
        k(  147) = (   0.1333333   0.2666667   0.0000000), wk =   0.0088889
        k(  148) = (   0.1333333   0.3333333   0.0000000), wk =   0.0088889
        k(  149) = (   0.1333333   0.4000000   0.0000000), wk =   0.0088889
        k(  150) = (   0.1333333   0.4666667   0.0000000), wk =   0.0088889
        k(  151) = (   0.2000000  -0.4666667   0.0000000), wk =   0.0088889
        k(  152) = (   0.2000000  -0.4000000   0.0000000), wk =   0.0088889
        k(  153) = (   0.2000000  -0.3333333   0.0000000), wk =   0.0088889
        k(  154) = (   0.2000000  -0.2666667   0.0000000), wk =   0.0088889
        k(  155) = (   0.2000000  -0.2000000   0.0000000), wk =   0.0088889
        k(  156) = (   0.2000000  -0.1333333   0.0000000), wk =   0.0088889
        k(  157) = (   0.2000000  -0.0666667   0.0000000), wk =   0.0088889
        k(  158) = (   0.2000000  -0.0000000   0.0000000), wk =   0.0088889
        k(  159) = (   0.2000000   0.0666667   0.0000000), wk =   0.0088889
        k(  160) = (   0.2000000   0.1333333   0.0000000), wk =   0.0088889
        k(  161) = (   0.2000000   0.2000000   0.0000000), wk =   0.0088889
        k(  162) = (   0.2000000   0.2666667   0.0000000), wk =   0.0088889
        k(  163) = (   0.2000000   0.3333333   0.0000000), wk =   0.0088889
        k(  164) = (   0.2000000   0.4000000   0.0000000), wk =   0.0088889
        k(  165) = (   0.2000000   0.4666667   0.0000000), wk =   0.0088889
        k(  166) = (   0.2666667  -0.4666667   0.0000000), wk =   0.0088889
        k(  167) = (   0.2666667  -0.4000000   0.0000000), wk =   0.0088889
        k(  168) = (   0.2666667  -0.3333333   0.0000000), wk =   0.0088889
        k(  169) = (   0.2666667  -0.2666667   0.0000000), wk =   0.0088889
        k(  170) = (   0.2666667  -0.2000000   0.0000000), wk =   0.0088889
        k(  171) = (   0.2666667  -0.1333333   0.0000000), wk =   0.0088889
        k(  172) = (   0.2666667  -0.0666667   0.0000000), wk =   0.0088889
        k(  173) = (   0.2666667   0.0000000   0.0000000), wk =   0.0088889
        k(  174) = (   0.2666667   0.0666667   0.0000000), wk =   0.0088889
        k(  175) = (   0.2666667   0.1333333   0.0000000), wk =   0.0088889
        k(  176) = (   0.2666667   0.2000000   0.0000000), wk =   0.0088889
        k(  177) = (   0.2666667   0.2666667   0.0000000), wk =   0.0088889
        k(  178) = (   0.2666667   0.3333333   0.0000000), wk =   0.0088889
        k(  179) = (   0.2666667   0.4000000   0.0000000), wk =   0.0088889
        k(  180) = (   0.2666667   0.4666667   0.0000000), wk =   0.0088889
        k(  181) = (   0.3333333  -0.4666667   0.0000000), wk =   0.0088889
        k(  182) = (   0.3333333  -0.4000000   0.0000000), wk =   0.0088889
        k(  183) = (   0.3333333  -0.3333333   0.0000000), wk =   0.0088889
        k(  184) = (   0.3333333  -0.2666667   0.0000000), wk =   0.0088889
        k(  185) = (   0.3333333  -0.2000000   0.0000000), wk =   0.0088889
        k(  186) = (   0.3333333  -0.1333333   0.0000000), wk =   0.0088889
        k(  187) = (   0.3333333  -0.0666667   0.0000000), wk =   0.0088889
        k(  188) = (   0.3333333   0.0000000   0.0000000), wk =   0.0088889
        k(  189) = (   0.3333333   0.0666667   0.0000000), wk =   0.0088889
        k(  190) = (   0.3333333   0.1333333   0.0000000), wk =   0.0088889
        k(  191) = (   0.3333333   0.2000000   0.0000000), wk =   0.0088889
        k(  192) = (   0.3333333   0.2666667   0.0000000), wk =   0.0088889
        k(  193) = (   0.3333333   0.3333333   0.0000000), wk =   0.0088889
        k(  194) = (   0.3333333   0.4000000   0.0000000), wk =   0.0088889
        k(  195) = (   0.3333333   0.4666667   0.0000000), wk =   0.0088889
        k(  196) = (   0.4000000  -0.4666667   0.0000000), wk =   0.0088889
        k(  197) = (   0.4000000  -0.4000000   0.0000000), wk =   0.0088889
        k(  198) = (   0.4000000  -0.3333333   0.0000000), wk =   0.0088889
        k(  199) = (   0.4000000  -0.2666667   0.0000000), wk =   0.0088889
        k(  200) = (   0.4000000  -0.2000000   0.0000000), wk =   0.0088889
        k(  201) = (   0.4000000  -0.1333333   0.0000000), wk =   0.0088889
        k(  202) = (   0.4000000  -0.0666667   0.0000000), wk =   0.0088889
        k(  203) = (   0.4000000  -0.0000000   0.0000000), wk =   0.0088889
        k(  204) = (   0.4000000   0.0666667   0.0000000), wk =   0.0088889
        k(  205) = (   0.4000000   0.1333333   0.0000000), wk =   0.0088889
        k(  206) = (   0.4000000   0.2000000   0.0000000), wk =   0.0088889
        k(  207) = (   0.4000000   0.2666667   0.0000000), wk =   0.0088889
        k(  208) = (   0.4000000   0.3333333   0.0000000), wk =   0.0088889
        k(  209) = (   0.4000000   0.4000000   0.0000000), wk =   0.0088889
        k(  210) = (   0.4000000   0.4666667   0.0000000), wk =   0.0088889
        k(  211) = (   0.4666667  -0.4666667   0.0000000), wk =   0.0088889
        k(  212) = (   0.4666667  -0.4000000   0.0000000), wk =   0.0088889
        k(  213) = (   0.4666667  -0.3333333   0.0000000), wk =   0.0088889
        k(  214) = (   0.4666667  -0.2666667   0.0000000), wk =   0.0088889
        k(  215) = (   0.4666667  -0.2000000   0.0000000), wk =   0.0088889
        k(  216) = (   0.4666667  -0.1333333   0.0000000), wk =   0.0088889
        k(  217) = (   0.4666667  -0.0666667   0.0000000), wk =   0.0088889
        k(  218) = (   0.4666667  -0.0000000   0.0000000), wk =   0.0088889
        k(  219) = (   0.4666667   0.0666667   0.0000000), wk =   0.0088889
        k(  220) = (   0.4666667   0.1333333   0.0000000), wk =   0.0088889
        k(  221) = (   0.4666667   0.2000000   0.0000000), wk =   0.0088889
        k(  222) = (   0.4666667   0.2666667   0.0000000), wk =   0.0088889
        k(  223) = (   0.4666667   0.3333333   0.0000000), wk =   0.0088889
        k(  224) = (   0.4666667   0.4000000   0.0000000), wk =   0.0088889
        k(  225) = (   0.4666667   0.4666667   0.0000000), wk =   0.0088889

     Dense  grid:   102231 G-vectors     FFT dimensions: (  27,  27, 324)

     Dynamical RAM for                 wfc:       0.17 MB

     Dynamical RAM for     wfc (w. buffer):       0.17 MB

     Dynamical RAM for           str. fact:       0.07 MB

     Dynamical RAM for           local pot:       0.00 MB

     Dynamical RAM for          nlocal pot:       0.32 MB

     Dynamical RAM for                qrad:       2.27 MB

     Dynamical RAM for          rho,v,vnew:       0.25 MB

     Dynamical RAM for           G-vectors:       0.16 MB

     Dynamical RAM for          h,s,v(r/c):       0.24 MB

     Dynamical RAM for          <psi|beta>:       0.04 MB

     Dynamical RAM for                 psi:       0.33 MB

     Dynamical RAM for                hpsi:       0.33 MB

     Dynamical RAM for      wfcinit/wfcrot:       0.36 MB

     Estimated static dynamical RAM per process >       3.57 MB

     Estimated max dynamical RAM per process >       4.51 MB

     Estimated total dynamical RAM >     189.38 MB

     Atomic positions and unit cell read from directory:
     ./calc.save/


     The potential is recalculated from file :
     ./calc.save/charge-density

     Starting wfcs are random

     Band Structure Calculation
     Davidson diagonalization with overlap

     Computing kpt #:     1  of   225
     total cpu time spent up to now is        2.2 secs

     Computing kpt #:     2  of   225
     total cpu time spent up to now is        3.5 secs

     Computing kpt #:     3  of   225
     total cpu time spent up to now is        4.7 secs

     Computing kpt #:     4  of   225
     total cpu time spent up to now is        6.0 secs

     Computing kpt #:     5  of   225
     total cpu time spent up to now is        7.3 secs

     Computing kpt #:     6  of   225
     total cpu time spent up to now is        8.5 secs

     Computing kpt #:     7  of   225
     total cpu time spent up to now is        9.7 secs

     Computing kpt #:     8  of   225
     total cpu time spent up to now is       10.9 secs

     Computing kpt #:     9  of   225
     total cpu time spent up to now is       12.3 secs

     Computing kpt #:    10  of   225
     total cpu time spent up to now is       13.6 secs

     Computing kpt #:    11  of   225
     total cpu time spent up to now is       15.2 secs

     Computing kpt #:    12  of   225
     total cpu time spent up to now is       16.6 secs

     Computing kpt #:    13  of   225
     total cpu time spent up to now is       17.9 secs

     Computing kpt #:    14  of   225
     total cpu time spent up to now is       19.2 secs

     Computing kpt #:    15  of   225
     total cpu time spent up to now is       20.5 secs

     Computing kpt #:    16  of   225
     total cpu time spent up to now is       21.7 secs

     Computing kpt #:    17  of   225
     total cpu time spent up to now is       22.9 secs

     Computing kpt #:    18  of   225
     total cpu time spent up to now is       24.2 secs

     Computing kpt #:    19  of   225
     total cpu time spent up to now is       25.5 secs

     Computing kpt #:    20  of   225
     total cpu time spent up to now is       26.8 secs

     Computing kpt #:    21  of   225
     total cpu time spent up to now is       28.0 secs

     Computing kpt #:    22  of   225
     total cpu time spent up to now is       29.3 secs

     Computing kpt #:    23  of   225
     total cpu time spent up to now is       30.7 secs

     Computing kpt #:    24  of   225
     total cpu time spent up to now is       32.2 secs

     Computing kpt #:    25  of   225
     total cpu time spent up to now is       33.6 secs

     Computing kpt #:    26  of   225
     total cpu time spent up to now is       35.0 secs

     Computing kpt #:    27  of   225
     total cpu time spent up to now is       36.5 secs

     Computing kpt #:    28  of   225
     total cpu time spent up to now is       38.1 secs

     Computing kpt #:    29  of   225
     total cpu time spent up to now is       39.5 secs

     Computing kpt #:    30  of   225
     total cpu time spent up to now is       40.8 secs

     Computing kpt #:    31  of   225
     total cpu time spent up to now is       42.0 secs

     Computing kpt #:    32  of   225
     total cpu time spent up to now is       43.3 secs

     Computing kpt #:    33  of   225
     total cpu time spent up to now is       44.8 secs

     Computing kpt #:    34  of   225
     total cpu time spent up to now is       46.1 secs

     Computing kpt #:    35  of   225
     total cpu time spent up to now is       47.3 secs

     Computing kpt #:    36  of   225
     total cpu time spent up to now is       48.6 secs

     Computing kpt #:    37  of   225
     total cpu time spent up to now is       50.2 secs

     Computing kpt #:    38  of   225
     total cpu time spent up to now is       51.6 secs

     Computing kpt #:    39  of   225
     total cpu time spent up to now is       52.9 secs

     Computing kpt #:    40  of   225
     total cpu time spent up to now is       54.2 secs

     Computing kpt #:    41  of   225
     total cpu time spent up to now is       55.5 secs

     Computing kpt #:    42  of   225
     total cpu time spent up to now is       56.9 secs

     Computing kpt #:    43  of   225
     total cpu time spent up to now is       58.2 secs

     Computing kpt #:    44  of   225
     total cpu time spent up to now is       60.0 secs

     Computing kpt #:    45  of   225
     total cpu time spent up to now is       61.3 secs

     Computing kpt #:    46  of   225
     total cpu time spent up to now is       62.6 secs

     Computing kpt #:    47  of   225
     total cpu time spent up to now is       63.9 secs

     Computing kpt #:    48  of   225
     total cpu time spent up to now is       65.2 secs

     Computing kpt #:    49  of   225
     total cpu time spent up to now is       66.5 secs

     Computing kpt #:    50  of   225
     total cpu time spent up to now is       67.9 secs

     Computing kpt #:    51  of   225
     total cpu time spent up to now is       69.3 secs

     Computing kpt #:    52  of   225
     total cpu time spent up to now is       70.5 secs

     Computing kpt #:    53  of   225
     total cpu time spent up to now is       71.8 secs

     Computing kpt #:    54  of   225
     total cpu time spent up to now is       73.0 secs

     Computing kpt #:    55  of   225
     total cpu time spent up to now is       74.3 secs

     Computing kpt #:    56  of   225
     total cpu time spent up to now is       75.6 secs

     Computing kpt #:    57  of   225
     total cpu time spent up to now is       76.8 secs

     Computing kpt #:    58  of   225
     total cpu time spent up to now is       78.1 secs

     Computing kpt #:    59  of   225
     total cpu time spent up to now is       79.6 secs

     Computing kpt #:    60  of   225
     total cpu time spent up to now is       81.1 secs

     Computing kpt #:    61  of   225
     total cpu time spent up to now is       82.4 secs

     Computing kpt #:    62  of   225
     total cpu time spent up to now is       83.6 secs

     Computing kpt #:    63  of   225
     total cpu time spent up to now is       84.8 secs

     Computing kpt #:    64  of   225
     total cpu time spent up to now is       86.2 secs

     Computing kpt #:    65  of   225
     total cpu time spent up to now is       87.5 secs

     Computing kpt #:    66  of   225
     total cpu time spent up to now is       88.8 secs

     Computing kpt #:    67  of   225
     total cpu time spent up to now is       90.1 secs

     Computing kpt #:    68  of   225
     total cpu time spent up to now is       91.4 secs

     Computing kpt #:    69  of   225
     total cpu time spent up to now is       92.7 secs

     Computing kpt #:    70  of   225
     total cpu time spent up to now is       94.0 secs

     Computing kpt #:    71  of   225
     total cpu time spent up to now is       95.3 secs

     Computing kpt #:    72  of   225
     total cpu time spent up to now is       96.5 secs

     Computing kpt #:    73  of   225
     total cpu time spent up to now is       97.8 secs

     Computing kpt #:    74  of   225
     total cpu time spent up to now is       99.1 secs

     Computing kpt #:    75  of   225
     total cpu time spent up to now is      100.6 secs

     Computing kpt #:    76  of   225
     total cpu time spent up to now is      101.8 secs

     Computing kpt #:    77  of   225
     total cpu time spent up to now is      103.1 secs

     Computing kpt #:    78  of   225
     total cpu time spent up to now is      104.4 secs

     Computing kpt #:    79  of   225
     total cpu time spent up to now is      105.9 secs

     Computing kpt #:    80  of   225
     total cpu time spent up to now is      107.2 secs

     Computing kpt #:    81  of   225
     total cpu time spent up to now is      108.5 secs

     Computing kpt #:    82  of   225
     total cpu time spent up to now is      109.8 secs

     Computing kpt #:    83  of   225
     total cpu time spent up to now is      111.2 secs

     Computing kpt #:    84  of   225
     total cpu time spent up to now is      112.5 secs

     Computing kpt #:    85  of   225
     total cpu time spent up to now is      113.8 secs

     Computing kpt #:    86  of   225
     total cpu time spent up to now is      115.1 secs

     Computing kpt #:    87  of   225
     total cpu time spent up to now is      116.3 secs

     Computing kpt #:    88  of   225
     total cpu time spent up to now is      117.6 secs

     Computing kpt #:    89  of   225
     total cpu time spent up to now is      119.0 secs

     Computing kpt #:    90  of   225
     total cpu time spent up to now is      120.4 secs

     Computing kpt #:    91  of   225
     total cpu time spent up to now is      121.6 secs

     Computing kpt #:    92  of   225
     total cpu time spent up to now is      123.0 secs

     Computing kpt #:    93  of   225
     total cpu time spent up to now is      124.5 secs

     Computing kpt #:    94  of   225
     total cpu time spent up to now is      125.8 secs

     Computing kpt #:    95  of   225
     total cpu time spent up to now is      127.1 secs

     Computing kpt #:    96  of   225
     total cpu time spent up to now is      128.4 secs

     Computing kpt #:    97  of   225
     total cpu time spent up to now is      129.7 secs

     Computing kpt #:    98  of   225
     total cpu time spent up to now is      131.1 secs

     Computing kpt #:    99  of   225
     total cpu time spent up to now is      132.4 secs

     Computing kpt #:   100  of   225
     total cpu time spent up to now is      133.7 secs

     Computing kpt #:   101  of   225
     total cpu time spent up to now is      135.0 secs

     Computing kpt #:   102  of   225
     total cpu time spent up to now is      136.3 secs

     Computing kpt #:   103  of   225
     total cpu time spent up to now is      137.6 secs

     Computing kpt #:   104  of   225
     total cpu time spent up to now is      139.1 secs

     Computing kpt #:   105  of   225
     total cpu time spent up to now is      140.4 secs

     Computing kpt #:   106  of   225
     total cpu time spent up to now is      141.7 secs

     Computing kpt #:   107  of   225
     total cpu time spent up to now is      143.0 secs

     Computing kpt #:   108  of   225
     total cpu time spent up to now is      144.4 secs

     Computing kpt #:   109  of   225
     total cpu time spent up to now is      145.7 secs

     Computing kpt #:   110  of   225
     total cpu time spent up to now is      147.0 secs

     Computing kpt #:   111  of   225
     total cpu time spent up to now is      148.3 secs

     Computing kpt #:   112  of   225
     total cpu time spent up to now is      149.8 secs

     Computing kpt #:   113  of   225
     total cpu time spent up to now is      151.2 secs

     Computing kpt #:   114  of   225
     total cpu time spent up to now is      152.6 secs

     Computing kpt #:   115  of   225
     total cpu time spent up to now is      153.9 secs

     Computing kpt #:   116  of   225
     total cpu time spent up to now is      155.2 secs

     Computing kpt #:   117  of   225
     total cpu time spent up to now is      156.5 secs

     Computing kpt #:   118  of   225
     total cpu time spent up to now is      157.8 secs

     Computing kpt #:   119  of   225
     total cpu time spent up to now is      159.2 secs

     Computing kpt #:   120  of   225
     total cpu time spent up to now is      160.5 secs

     Computing kpt #:   121  of   225
     total cpu time spent up to now is      161.7 secs

     Computing kpt #:   122  of   225
     total cpu time spent up to now is      163.3 secs

     Computing kpt #:   123  of   225
     total cpu time spent up to now is      164.6 secs

     Computing kpt #:   124  of   225
     total cpu time spent up to now is      165.9 secs

     Computing kpt #:   125  of   225
     total cpu time spent up to now is      167.2 secs

     Computing kpt #:   126  of   225
     total cpu time spent up to now is      168.5 secs

     Computing kpt #:   127  of   225
     total cpu time spent up to now is      169.8 secs

     Computing kpt #:   128  of   225
     total cpu time spent up to now is      171.2 secs

     Computing kpt #:   129  of   225
     total cpu time spent up to now is      172.5 secs

     Computing kpt #:   130  of   225
     total cpu time spent up to now is      173.8 secs

     Computing kpt #:   131  of   225
     total cpu time spent up to now is      175.0 secs

     Computing kpt #:   132  of   225
     total cpu time spent up to now is      176.3 secs

     Computing kpt #:   133  of   225
     total cpu time spent up to now is      177.8 secs

     Computing kpt #:   134  of   225
     total cpu time spent up to now is      179.1 secs

     Computing kpt #:   135  of   225
     total cpu time spent up to now is      180.3 secs

     Computing kpt #:   136  of   225
     total cpu time spent up to now is      181.6 secs

     Computing kpt #:   137  of   225
     total cpu time spent up to now is      183.9 secs

     Computing kpt #:   138  of   225
     total cpu time spent up to now is      185.2 secs

     Computing kpt #:   139  of   225
     total cpu time spent up to now is      186.6 secs

     Computing kpt #:   140  of   225
     total cpu time spent up to now is      187.9 secs

     Computing kpt #:   141  of   225
     total cpu time spent up to now is      189.2 secs

     Computing kpt #:   142  of   225
     total cpu time spent up to now is      190.4 secs

     Computing kpt #:   143  of   225
     total cpu time spent up to now is      191.7 secs

     Computing kpt #:   144  of   225
     total cpu time spent up to now is      193.1 secs

     Computing kpt #:   145  of   225
     total cpu time spent up to now is      194.3 secs

     Computing kpt #:   146  of   225
     total cpu time spent up to now is      195.5 secs

     Computing kpt #:   147  of   225
     total cpu time spent up to now is      196.9 secs

     Computing kpt #:   148  of   225
     total cpu time spent up to now is      198.2 secs

     Computing kpt #:   149  of   225
     total cpu time spent up to now is      199.4 secs

     Computing kpt #:   150  of   225
     total cpu time spent up to now is      200.6 secs

     Computing kpt #:   151  of   225
     total cpu time spent up to now is      202.2 secs

     Computing kpt #:   152  of   225
     total cpu time spent up to now is      205.7 secs

     Computing kpt #:   153  of   225
     total cpu time spent up to now is      207.0 secs

     Computing kpt #:   154  of   225
     total cpu time spent up to now is      208.5 secs

     Computing kpt #:   155  of   225
     total cpu time spent up to now is      209.8 secs

     Computing kpt #:   156  of   225
     total cpu time spent up to now is      211.2 secs

     Computing kpt #:   157  of   225
     total cpu time spent up to now is      212.5 secs

     Computing kpt #:   158  of   225
     total cpu time spent up to now is      213.8 secs

     Computing kpt #:   159  of   225
     total cpu time spent up to now is      215.0 secs

     Computing kpt #:   160  of   225
     total cpu time spent up to now is      216.4 secs

     Computing kpt #:   161  of   225
     total cpu time spent up to now is      217.8 secs

     Computing kpt #:   162  of   225
     total cpu time spent up to now is      219.2 secs

     Computing kpt #:   163  of   225
     total cpu time spent up to now is      220.4 secs

     Computing kpt #:   164  of   225
     total cpu time spent up to now is      221.7 secs

     Computing kpt #:   165  of   225
     total cpu time spent up to now is      222.9 secs

     Computing kpt #:   166  of   225
     total cpu time spent up to now is      224.4 secs

     Computing kpt #:   167  of   225
     total cpu time spent up to now is      225.9 secs

     Computing kpt #:   168  of   225
     total cpu time spent up to now is      227.1 secs

     Computing kpt #:   169  of   225
     total cpu time spent up to now is      228.4 secs

     Computing kpt #:   170  of   225
     total cpu time spent up to now is      229.7 secs

     Computing kpt #:   171  of   225
     total cpu time spent up to now is      230.9 secs

     Computing kpt #:   172  of   225
     total cpu time spent up to now is      232.2 secs

     Computing kpt #:   173  of   225
     total cpu time spent up to now is      233.5 secs

     Computing kpt #:   174  of   225
     total cpu time spent up to now is      234.8 secs

     Computing kpt #:   175  of   225
     total cpu time spent up to now is      236.3 secs

     Computing kpt #:   176  of   225
     total cpu time spent up to now is      237.7 secs

     Computing kpt #:   177  of   225
     total cpu time spent up to now is      239.0 secs

     Computing kpt #:   178  of   225
     total cpu time spent up to now is      240.3 secs

     Computing kpt #:   179  of   225
     total cpu time spent up to now is      241.6 secs

     Computing kpt #:   180  of   225
     total cpu time spent up to now is      242.9 secs

     Computing kpt #:   181  of   225
     total cpu time spent up to now is      244.3 secs

     Computing kpt #:   182  of   225
     total cpu time spent up to now is      245.8 secs

     Computing kpt #:   183  of   225
     total cpu time spent up to now is      248.1 secs

     Computing kpt #:   184  of   225
     total cpu time spent up to now is      249.4 secs

     Computing kpt #:   185  of   225
     total cpu time spent up to now is      250.7 secs

     Computing kpt #:   186  of   225
     total cpu time spent up to now is      252.0 secs

     Computing kpt #:   187  of   225
     total cpu time spent up to now is      253.3 secs

     Computing kpt #:   188  of   225
     total cpu time spent up to now is      254.7 secs

     Computing kpt #:   189  of   225
     total cpu time spent up to now is      256.7 secs

     Computing kpt #:   190  of   225
     total cpu time spent up to now is      258.1 secs

     Computing kpt #:   191  of   225
     total cpu time spent up to now is      259.4 secs

     Computing kpt #:   192  of   225
     total cpu time spent up to now is      260.7 secs

     Computing kpt #:   193  of   225
     total cpu time spent up to now is      262.1 secs

     Computing kpt #:   194  of   225
     total cpu time spent up to now is      263.4 secs

     Computing kpt #:   195  of   225
     total cpu time spent up to now is      264.8 secs

     Computing kpt #:   196  of   225
     total cpu time spent up to now is      266.2 secs

     Computing kpt #:   197  of   225
     total cpu time spent up to now is      267.6 secs

     Computing kpt #:   198  of   225
     total cpu time spent up to now is      269.1 secs

     Computing kpt #:   199  of   225
     total cpu time spent up to now is      270.6 secs

     Computing kpt #:   200  of   225
     total cpu time spent up to now is      271.9 secs

     Computing kpt #:   201  of   225
     total cpu time spent up to now is      273.5 secs

     Computing kpt #:   202  of   225
     total cpu time spent up to now is      275.5 secs

     Computing kpt #:   203  of   225
     total cpu time spent up to now is      277.0 secs

     Computing kpt #:   204  of   225
     total cpu time spent up to now is      278.3 secs

     Computing kpt #:   205  of   225
     total cpu time spent up to now is      280.0 secs

     Computing kpt #:   206  of   225
     total cpu time spent up to now is      281.2 secs

     Computing kpt #:   207  of   225
     total cpu time spent up to now is      282.5 secs

     Computing kpt #:   208  of   225
     total cpu time spent up to now is      283.7 secs

     Computing kpt #:   209  of   225
     total cpu time spent up to now is      284.9 secs

     Computing kpt #:   210  of   225
     total cpu time spent up to now is      286.3 secs

     Computing kpt #:   211  of   225
     total cpu time spent up to now is      287.6 secs

     Computing kpt #:   212  of   225
     total cpu time spent up to now is      288.9 secs

     Computing kpt #:   213  of   225
     total cpu time spent up to now is      290.4 secs

     Computing kpt #:   214  of   225
     total cpu time spent up to now is      291.9 secs

     Computing kpt #:   215  of   225
     total cpu time spent up to now is      293.5 secs

     Computing kpt #:   216  of   225
     total cpu time spent up to now is      294.9 secs

     Computing kpt #:   217  of   225
     total cpu time spent up to now is      296.1 secs

     Computing kpt #:   218  of   225
     total cpu time spent up to now is      297.4 secs

     Computing kpt #:   219  of   225
     total cpu time spent up to now is      298.9 secs

     Computing kpt #:   220  of   225
     total cpu time spent up to now is      300.2 secs

     Computing kpt #:   221  of   225
     total cpu time spent up to now is      301.5 secs

     Computing kpt #:   222  of   225
     total cpu time spent up to now is      302.8 secs

     Computing kpt #:   223  of   225
     total cpu time spent up to now is      304.2 secs

     Computing kpt #:   224  of   225
     total cpu time spent up to now is      305.4 secs

     Computing kpt #:   225  of   225
     total cpu time spent up to now is      306.6 secs

     ethr =  1.41E-10,  avg # of iterations = 57.5

     total cpu time spent up to now is      306.6 secs

     End of band structure calculation

          k =-0.1499-0.2597 0.0000 ( 12746 PWs)   bands (ev):

   -61.1810 -61.1385 -35.5925 -35.5502 -35.3326 -35.2896 -35.2536 -35.2113
   -12.6344 -12.5699 -12.5430 -12.4982  -6.3883  -6.3095  -5.5589  -5.4582
    -4.6614  -4.4958  -3.6080  -3.5575  -2.6083  -2.3634  -1.7160  -1.6325
    -0.9047  -0.8304   2.0701   2.1051   2.5273   2.6285   3.5080   3.6737
     3.7706   3.8995   5.8840   6.2623

     occupation numbers 
     1.0000   1.0000   1.0000   1.0000   1.0000   1.0000   1.0000   1.0000
     1.0000   1.0000   1.0000   1.0000   1.0000   1.0000   1.0000   1.0000
     1.0000   1.0000   1.0000   1.0000   1.0000   1.0000   1.0000   1.0000
     1.0000   1.0000   0.0000   0.0000   0.0000   0.0000   0.0000   0.0000
     0.0000   0.0000   0.0000   0.0000

          k =-0.1499-0.2350 0.0000 ( 12760 PWs)   bands (ev):

   -61.1801 -61.1375 -35.5702 -35.5279 -35.3307 -35.2879 -35.2877 -35.2456
   -12.5965 -12.5339 -12.5061 -12.4661  -6.1706  -6.0887  -5.6243  -5.5517
    -4.5730  -4.4054  -3.7104  -3.6104  -2.5425  -2.4410  -2.3687  -2.3084
    -0.8058  -0.7316   1.9625   2.0610   2.6301   2.7365   3.1878   3.3466
     3.8904   4.0714   6.1349   6.5691

     occupation numbers 
     1.0000   1.0000   1.0000   1.0000   1.0000   1.0000   1.0000   1.0000
     1.0000   1.0000   1.0000   1.0000   1.0000   1.0000   1.0000   1.0000
     1.0000   1.0000   1.0000   1.0000   1.0000   1.0000   1.0000   1.0000
     1.0000   1.0000   0.0000   0.0000   0.0000   0.0000   0.0000   0.0000
     0.0000   0.0000   0.0000   0.0000

          k =-0.1499-0.2102 0.0000 ( 12765 PWs)   bands (ev):

   -61.1794 -61.1369 -35.5362 -35.4939 -35.3307 -35.3295 -35.2884 -35.2865
   -12.5771 -12.5115 -12.4808 -12.4390  -5.8748  -5.7729  -5.6776  -5.6310
    -4.4005  -4.2398  -3.8065  -3.6216  -3.2313  -3.0882  -2.4242  -2.3223
    -0.7874  -0.7302   1.7892   1.9728   2.6777   2.7911   2.8361   2.9711
     4.2329   4.3637   6.5940   7.0424

     occupation numbers 
     1.0000   1.0000   1.0000   1.0000   1.0000   1.0000   1.0000   1.0000
     1.0000   1.0000   1.0000   1.0000   1.0000   1.0000   1.0000   1.0000
     1.0000   1.0000   1.0000   1.0000   1.0000   1.0000   1.0000   1.0000
     1.0000   1.0000   0.0000   0.0000   0.0000   0.0000   0.0000   0.0000
     0.0000   0.0000   0.0000   0.0000

          k =-0.1499-0.1855 0.0000 ( 12769 PWs)   bands (ev):

   -61.1792 -61.1366 -35.5162 -35.4739 -35.3539 -35.3290 -35.3116 -35.2861
   -12.5714 -12.5040 -12.4717 -12.4283  -5.7425  -5.6897  -5.6601  -5.5913
    -4.1711  -4.1133  -3.8231  -3.6579  -3.6004  -3.5840  -2.3893  -2.3019
    -0.7890  -0.7388   1.7102   1.9260   2.6114   2.6603   2.8188   2.9464
     4.3873   4.4840   7.0507   7.1781

     occupation numbers 
     1.0000   1.0000   1.0000   1.0000   1.0000   1.0000   1.0000   1.0000
     1.0000   1.0000   1.0000   1.0000   1.0000   1.0000   1.0000   1.0000
     1.0000   1.0000   1.0000   1.0000   1.0000   1.0000   1.0000   1.0000
     1.0000   1.0000   0.0000   0.0000   0.0000   0.0000   0.0000   0.0000
     0.0000   0.0000   0.0000   0.0000

          k =-0.1499-0.1608 0.0000 ( 12765 PWs)   bands (ev):

   -61.1794 -61.1369 -35.5362 -35.4939 -35.3307 -35.3295 -35.2884 -35.2865
   -12.5771 -12.5115 -12.4808 -12.4390  -5.8748  -5.7729  -5.6776  -5.6310
    -4.4005  -4.2398  -3.8065  -3.6216  -3.2313  -3.0882  -2.4242  -2.3223
    -0.7874  -0.7302   1.7892   1.9728   2.6777   2.7911   2.8361   2.9711
     4.2329   4.3637   6.5940   7.0424

     occupation numbers 
     1.0000   1.0000   1.0000   1.0000   1.0000   1.0000   1.0000   1.0000
     1.0000   1.0000   1.0000   1.0000   1.0000   1.0000   1.0000   1.0000
     1.0000   1.0000   1.0000   1.0000   1.0000   1.0000   1.0000   1.0000
     1.0000   1.0000   0.0000   0.0000   0.0000   0.0000   0.0000   0.0000
     0.0000   0.0000   0.0000   0.0000

          k =-0.1499-0.1360 0.0000 ( 12760 PWs)   bands (ev):

   -61.1801 -61.1375 -35.5702 -35.5279 -35.3307 -35.2879 -35.2877 -35.2456
   -12.5965 -12.5339 -12.5061 -12.4661  -6.1706  -6.0887  -5.6243  -5.5517
    -4.5730  -4.4054  -3.7104  -3.6104  -2.5425  -2.4410  -2.3687  -2.3084
    -0.8058  -0.7316   1.9625   2.0610   2.6301   2.7365   3.1878   3.3466
     3.8904   4.0714   6.1349   6.5691

     occupation numbers 
     1.0000   1.0000   1.0000   1.0000   1.0000   1.0000   1.0000   1.0000
     1.0000   1.0000   1.0000   1.0000   1.0000   1.0000   1.0000   1.0000
     1.0000   1.0000   1.0000   1.0000   1.0000   1.0000   1.0000   1.0000
     1.0000   1.0000   0.0000   0.0000   0.0000   0.0000   0.0000   0.0000
     0.0000   0.0000   0.0000   0.0000

          k =-0.1499-0.1113 0.0000 ( 12746 PWs)   bands (ev):

   -61.1810 -61.1385 -35.5925 -35.5502 -35.3326 -35.2896 -35.2536 -35.2113
   -12.6344 -12.5699 -12.5430 -12.4982  -6.3883  -6.3095  -5.5589  -5.4582
    -4.6614  -4.4958  -3.6080  -3.5575  -2.6083  -2.3634  -1.7160  -1.6325
    -0.9047  -0.8304   2.0701   2.1051   2.5273   2.6285   3.5080   3.6737
     3.7706   3.8995   5.8840   6.2623

     occupation numbers 
     1.0000   1.0000   1.0000   1.0000   1.0000   1.0000   1.0000   1.0000
     1.0000   1.0000   1.0000   1.0000   1.0000   1.0000   1.0000   1.0000
     1.0000   1.0000   1.0000   1.0000   1.0000   1.0000   1.0000   1.0000
     1.0000   1.0000   0.0000   0.0000   0.0000   0.0000   0.0000   0.0000
     0.0000   0.0000   0.0000   0.0000

          k =-0.1499-0.0866 0.0000 ( 12724 PWs)   bands (ev):

   -61.1822 -61.1396 -35.5939 -35.5516 -35.3348 -35.2918 -35.2396 -35.1973
   -12.6915 -12.6194 -12.5796 -12.5244  -6.4249  -6.3447  -5.5004  -5.3840
    -4.6716  -4.5059  -3.5465  -3.4919  -2.6415  -2.3587  -1.2724  -1.1840
    -1.1751  -1.0715   2.0591   2.1059   2.4193   2.5606   3.3929   3.6397
     3.9062   4.1007   5.9044   6.2766

     occupation numbers 
     1.0000   1.0000   1.0000   1.0000   1.0000   1.0000   1.0000   1.0000
     1.0000   1.0000   1.0000   1.0000   1.0000   1.0000   1.0000   1.0000
     1.0000   1.0000   1.0000   1.0000   1.0000   1.0000   1.0000   1.0000
     1.0000   1.0000   0.0000   0.0000   0.0000   0.0000   0.0000   0.0000
     0.0000   0.0000   0.0000   0.0000

          k =-0.1499-0.0618 0.0000 ( 12772 PWs)   bands (ev):

   -61.1832 -61.1407 -35.5740 -35.5317 -35.3369 -35.2939 -35.2486 -35.2063
   -12.7581 -12.6775 -12.6055 -12.5393  -6.2765  -6.1902  -5.4415  -5.3318
    -4.5986  -4.4292  -3.5914  -3.5273  -2.5357  -2.2931  -1.7744  -1.6921
    -1.0027  -0.9355   1.9642   2.0653   2.3951   2.5197   3.3537   3.5531
     3.8562   3.9509   6.2012   6.6252

     occupation numbers 
     1.0000   1.0000   1.0000   1.0000   1.0000   1.0000   1.0000   1.0000
     1.0000   1.0000   1.0000   1.0000   1.0000   1.0000   1.0000   1.0000
     1.0000   1.0000   1.0000   1.0000   1.0000   1.0000   1.0000   1.0000
     1.0000   1.0000   0.0000   0.0000   0.0000   0.0000   0.0000   0.0000
     0.0000   0.0000   0.0000   0.0000

          k =-0.1499-0.0371 0.0000 ( 12794 PWs)   bands (ev):

   -61.1841 -61.1415 -35.5398 -35.4975 -35.3386 -35.2956 -35.2751 -35.2328
   -12.8167 -12.7290 -12.6202 -12.5447  -6.0159  -5.9107  -5.3669  -5.2900
    -4.4438  -4.2736  -3.7911  -3.6236  -2.4951  -2.3897  -2.2840  -2.1373
    -0.9861  -0.9317   1.7318   2.0317   2.4724   2.5297   2.9799   3.1657
     4.0030   4.1048   6.7054   7.1481

     occupation numbers 
     1.0000   1.0000   1.0000   1.0000   1.0000   1.0000   1.0000   1.0000
     1.0000   1.0000   1.0000   1.0000   1.0000   1.0000   1.0000   1.0000
     1.0000   1.0000   1.0000   1.0000   1.0000   1.0000   1.0000   1.0000
     1.0000   1.0000   0.0000   0.0000   0.0000   0.0000   0.0000   0.0000
     0.0000   0.0000   0.0000   0.0000

          k =-0.1499-0.0124 0.0000 ( 12821 PWs)   bands (ev):

   -61.1845 -61.1420 -35.5091 -35.4668 -35.3395 -35.3020 -35.2965 -35.2597
   -12.8508 -12.7589 -12.6265 -12.5454  -5.7993  -5.6669  -5.2999  -5.2598
    -4.2502  -4.0990  -3.9218  -3.6921  -3.0788  -2.9900  -2.0961  -2.0125
    -1.0272  -0.9687   1.5721   1.9852   2.5178   2.5665   2.6699   2.8330
     4.2002   4.2857   7.2672   7.5527

     occupation numbers 
     1.0000   1.0000   1.0000   1.0000   1.0000   1.0000   1.0000   1.0000
     1.0000   1.0000   1.0000   1.0000   1.0000   1.0000   1.0000   1.0000
     1.0000   1.0000   1.0000   1.0000   1.0000   1.0000   1.0000   1.0000
     1.0000   1.0000   0.0000   0.0000   0.0000   0.0000   0.0000   0.0000
     0.0000   0.0000   0.0000   0.0000

          k =-0.1499 0.0124 0.0000 ( 12821 PWs)   bands (ev):

   -61.1845 -61.1420 -35.5091 -35.4668 -35.3395 -35.3020 -35.2965 -35.2597
   -12.8508 -12.7589 -12.6265 -12.5454  -5.7993  -5.6669  -5.2999  -5.2598
    -4.2502  -4.0990  -3.9218  -3.6921  -3.0788  -2.9900  -2.0961  -2.0125
    -1.0272  -0.9687   1.5721   1.9852   2.5178   2.5665   2.6699   2.8330
     4.2002   4.2857   7.2672   7.5527

     occupation numbers 
     1.0000   1.0000   1.0000   1.0000   1.0000   1.0000   1.0000   1.0000
     1.0000   1.0000   1.0000   1.0000   1.0000   1.0000   1.0000   1.0000
     1.0000   1.0000   1.0000   1.0000   1.0000   1.0000   1.0000   1.0000
     1.0000   1.0000   0.0000   0.0000   0.0000   0.0000   0.0000   0.0000
     0.0000   0.0000   0.0000   0.0000

          k =-0.1499 0.0371 0.0000 ( 12794 PWs)   bands (ev):

   -61.1841 -61.1415 -35.5398 -35.4975 -35.3386 -35.2956 -35.2751 -35.2328
   -12.8167 -12.7290 -12.6202 -12.5447  -6.0159  -5.9107  -5.3669  -5.2900
    -4.4438  -4.2736  -3.7911  -3.6236  -2.4951  -2.3897  -2.2840  -2.1373
    -0.9861  -0.9317   1.7318   2.0317   2.4724   2.5297   2.9799   3.1657
     4.0030   4.1048   6.7054   7.1481

     occupation numbers 
     1.0000   1.0000   1.0000   1.0000   1.0000   1.0000   1.0000   1.0000
     1.0000   1.0000   1.0000   1.0000   1.0000   1.0000   1.0000   1.0000
     1.0000   1.0000   1.0000   1.0000   1.0000   1.0000   1.0000   1.0000
     1.0000   1.0000   0.0000   0.0000   0.0000   0.0000   0.0000   0.0000
     0.0000   0.0000   0.0000   0.0000

          k =-0.1499 0.0618 0.0000 ( 12772 PWs)   bands (ev):

   -61.1832 -61.1407 -35.5740 -35.5317 -35.3369 -35.2939 -35.2486 -35.2063
   -12.7581 -12.6775 -12.6055 -12.5393  -6.2765  -6.1902  -5.4415  -5.3318
    -4.5986  -4.4292  -3.5914  -3.5273  -2.5357  -2.2931  -1.7744  -1.6921
    -1.0027  -0.9355   1.9642   2.0653   2.3951   2.5197   3.3537   3.5531
     3.8562   3.9509   6.2012   6.6252

     occupation numbers 
     1.0000   1.0000   1.0000   1.0000   1.0000   1.0000   1.0000   1.0000
     1.0000   1.0000   1.0000   1.0000   1.0000   1.0000   1.0000   1.0000
     1.0000   1.0000   1.0000   1.0000   1.0000   1.0000   1.0000   1.0000
     1.0000   1.0000   0.0000   0.0000   0.0000   0.0000   0.0000   0.0000
     0.0000   0.0000   0.0000   0.0000

          k =-0.1499 0.0866 0.0000 ( 12724 PWs)   bands (ev):

   -61.1822 -61.1396 -35.5939 -35.5516 -35.3348 -35.2918 -35.2396 -35.1973
   -12.6915 -12.6194 -12.5796 -12.5244  -6.4249  -6.3447  -5.5004  -5.3840
    -4.6716  -4.5059  -3.5465  -3.4919  -2.6415  -2.3587  -1.2724  -1.1840
    -1.1751  -1.0715   2.0591   2.1059   2.4193   2.5606   3.3929   3.6397
     3.9062   4.1007   5.9044   6.2766

     occupation numbers 
     1.0000   1.0000   1.0000   1.0000   1.0000   1.0000   1.0000   1.0000
     1.0000   1.0000   1.0000   1.0000   1.0000   1.0000   1.0000   1.0000
     1.0000   1.0000   1.0000   1.0000   1.0000   1.0000   1.0000   1.0000
     1.0000   1.0000   0.0000   0.0000   0.0000   0.0000   0.0000   0.0000
     0.0000   0.0000   0.0000   0.0000

          k =-0.1285-0.2473 0.0000 ( 12760 PWs)   bands (ev):

   -61.1801 -61.1375 -35.5702 -35.5279 -35.3307 -35.2879 -35.2877 -35.2456
   -12.5965 -12.5339 -12.5061 -12.4661  -6.1706  -6.0887  -5.6243  -5.5517
    -4.5730  -4.4054  -3.7104  -3.6104  -2.5425  -2.4410  -2.3687  -2.3084
    -0.8058  -0.7316   1.9625   2.0610   2.6301   2.7365   3.1878   3.3466
     3.8904   4.0714   6.1349   6.5691

     occupation numbers 
     1.0000   1.0000   1.0000   1.0000   1.0000   1.0000   1.0000   1.0000
     1.0000   1.0000   1.0000   1.0000   1.0000   1.0000   1.0000   1.0000
     1.0000   1.0000   1.0000   1.0000   1.0000   1.0000   1.0000   1.0000
     1.0000   1.0000   0.0000   0.0000   0.0000   0.0000   0.0000   0.0000
     0.0000   0.0000   0.0000   0.0000

          k =-0.1285-0.2226 0.0000 ( 12760 PWs)   bands (ev):

   -61.1776 -61.1350 -35.5453 -35.5030 -35.3412 -35.3259 -35.2989 -35.2830
   -12.4802 -12.4406 -12.4034 -12.3953  -5.9009  -5.8118  -5.8052  -5.7562
    -4.5145  -4.3499  -3.6956  -3.5838  -3.2517  -3.0963  -2.5678  -2.4719
    -0.6596  -0.5923   1.8384   1.8896   2.7589   2.8456   2.9495   3.0698
     4.2374   4.3862   6.3179   6.7634

     occupation numbers 
     1.0000   1.0000   1.0000   1.0000   1.0000   1.0000   1.0000   1.0000
     1.0000   1.0000   1.0000   1.0000   1.0000   1.0000   1.0000   1.0000
     1.0000   1.0000   1.0000   1.0000   1.0000   1.0000   1.0000   1.0000
     1.0000   1.0000   0.0000   0.0000   0.0000   0.0000   0.0000   0.0000
     0.0000   0.0000   0.0000   0.0000

          k =-0.1285-0.1979 0.0000 ( 12773 PWs)   bands (ev):

   -61.1763 -61.1337 -35.5111 -35.4688 -35.3912 -35.3489 -35.3233 -35.2803
   -12.4244 -12.3855 -12.3607 -12.3360  -5.9456  -5.9065  -5.5395  -5.4554
    -4.4356  -4.3184  -3.8977  -3.7821  -3.5994  -3.4817  -2.6562  -2.5661
    -0.5506  -0.4979   1.6587   1.7218   2.5830   2.6116   3.0696   3.2004
     4.5218   4.6025   6.6695   7.0806

     occupation numbers 
     1.0000   1.0000   1.0000   1.0000   1.0000   1.0000   1.0000   1.0000
     1.0000   1.0000   1.0000   1.0000   1.0000   1.0000   1.0000   1.0000
     1.0000   1.0000   1.0000   1.0000   1.0000   1.0000   1.0000   1.0000
     1.0000   1.0000   0.0000   0.0000   0.0000   0.0000   0.0000   0.0000
     0.0000   0.0000   0.0000   0.0000

          k =-0.1285-0.1731 0.0000 ( 12773 PWs)   bands (ev):

   -61.1763 -61.1337 -35.5111 -35.4688 -35.3912 -35.3489 -35.3233 -35.2803
   -12.4244 -12.3855 -12.3607 -12.3360  -5.9456  -5.9065  -5.5395  -5.4554
    -4.4356  -4.3184  -3.8977  -3.7821  -3.5994  -3.4817  -2.6562  -2.5661
    -0.5506  -0.4979   1.6587   1.7218   2.5830   2.6116   3.0696   3.2004
     4.5218   4.6025   6.6695   7.0806

     occupation numbers 
     1.0000   1.0000   1.0000   1.0000   1.0000   1.0000   1.0000   1.0000
     1.0000   1.0000   1.0000   1.0000   1.0000   1.0000   1.0000   1.0000
     1.0000   1.0000   1.0000   1.0000   1.0000   1.0000   1.0000   1.0000
     1.0000   1.0000   0.0000   0.0000   0.0000   0.0000   0.0000   0.0000
     0.0000   0.0000   0.0000   0.0000

          k =-0.1285-0.1484 0.0000 ( 12760 PWs)   bands (ev):

   -61.1776 -61.1350 -35.5453 -35.5030 -35.3412 -35.3259 -35.2989 -35.2830
   -12.4802 -12.4406 -12.4034 -12.3953  -5.9009  -5.8118  -5.8052  -5.7562
    -4.5145  -4.3499  -3.6956  -3.5838  -3.2517  -3.0963  -2.5678  -2.4719
    -0.6596  -0.5923   1.8384   1.8896   2.7589   2.8456   2.9495   3.0698
     4.2374   4.3862   6.3179   6.7634

     occupation numbers 
     1.0000   1.0000   1.0000   1.0000   1.0000   1.0000   1.0000   1.0000
[...]

   -61.1865 -61.1440 -35.5558 -35.5135 -35.3434 -35.3004 -35.2307 -35.1884
   -12.9314 -12.8392 -12.6878 -12.6044  -6.2030  -6.1049  -5.2884  -5.1466
    -4.5664  -4.3924  -3.4352  -3.3811  -2.5642  -2.2588  -1.3941  -1.3810
    -1.2957  -1.2553   1.9780   2.0358   2.1074   2.3669   3.2627   3.5385
     3.8574   4.0386   6.4818   6.8841

     occupation numbers 
     1.0000   1.0000   1.0000   1.0000   1.0000   1.0000   1.0000   1.0000
     1.0000   1.0000   1.0000   1.0000   1.0000   1.0000   1.0000   1.0000
     1.0000   1.0000   1.0000   1.0000   1.0000   1.0000   1.0000   1.0000
     1.0000   1.0000   0.0000   0.0000   0.0000   0.0000   0.0000   0.0000
     0.0000   0.0000   0.0000   0.0000

          k = 0.1285 0.0989 0.0000 ( 12772 PWs)   bands (ev):

   -61.1832 -61.1407 -35.5740 -35.5317 -35.3369 -35.2939 -35.2486 -35.2063
   -12.7581 -12.6775 -12.6055 -12.5393  -6.2765  -6.1902  -5.4415  -5.3318
    -4.5986  -4.4292  -3.5914  -3.5273  -2.5357  -2.2931  -1.7744  -1.6921
    -1.0027  -0.9355   1.9642   2.0653   2.3951   2.5197   3.3537   3.5531
     3.8562   3.9509   6.2012   6.6252

     occupation numbers 
     1.0000   1.0000   1.0000   1.0000   1.0000   1.0000   1.0000   1.0000
     1.0000   1.0000   1.0000   1.0000   1.0000   1.0000   1.0000   1.0000
     1.0000   1.0000   1.0000   1.0000   1.0000   1.0000   1.0000   1.0000
     1.0000   1.0000   0.0000   0.0000   0.0000   0.0000   0.0000   0.0000
     0.0000   0.0000   0.0000   0.0000

          k = 0.1285 0.1237 0.0000 ( 12760 PWs)   bands (ev):

   -61.1801 -61.1375 -35.5702 -35.5279 -35.3307 -35.2879 -35.2877 -35.2456
   -12.5965 -12.5339 -12.5061 -12.4661  -6.1706  -6.0887  -5.6243  -5.5517
    -4.5730  -4.4054  -3.7104  -3.6104  -2.5425  -2.4410  -2.3687  -2.3084
    -0.8058  -0.7316   1.9625   2.0610   2.6301   2.7365   3.1878   3.3466
     3.8904   4.0714   6.1349   6.5691

     occupation numbers 
     1.0000   1.0000   1.0000   1.0000   1.0000   1.0000   1.0000   1.0000
     1.0000   1.0000   1.0000   1.0000   1.0000   1.0000   1.0000   1.0000
     1.0000   1.0000   1.0000   1.0000   1.0000   1.0000   1.0000   1.0000
     1.0000   1.0000   0.0000   0.0000   0.0000   0.0000   0.0000   0.0000
     0.0000   0.0000   0.0000   0.0000

          k = 0.1285 0.1484 0.0000 ( 12760 PWs)   bands (ev):

   -61.1776 -61.1350 -35.5453 -35.5030 -35.3412 -35.3259 -35.2989 -35.2830
   -12.4802 -12.4406 -12.4034 -12.3953  -5.9009  -5.8118  -5.8052  -5.7562
    -4.5145  -4.3499  -3.6956  -3.5838  -3.2517  -3.0963  -2.5678  -2.4719
    -0.6596  -0.5923   1.8384   1.8896   2.7589   2.8456   2.9495   3.0698
     4.2374   4.3862   6.3179   6.7634

     occupation numbers 
     1.0000   1.0000   1.0000   1.0000   1.0000   1.0000   1.0000   1.0000
     1.0000   1.0000   1.0000   1.0000   1.0000   1.0000   1.0000   1.0000
     1.0000   1.0000   1.0000   1.0000   1.0000   1.0000   1.0000   1.0000
     1.0000   1.0000   0.0000   0.0000   0.0000   0.0000   0.0000   0.0000
     0.0000   0.0000   0.0000   0.0000

          k = 0.1285 0.1731 0.0000 ( 12773 PWs)   bands (ev):

   -61.1763 -61.1337 -35.5111 -35.4688 -35.3912 -35.3489 -35.3233 -35.2803
   -12.4244 -12.3855 -12.3607 -12.3360  -5.9456  -5.9065  -5.5395  -5.4554
    -4.4356  -4.3184  -3.8977  -3.7821  -3.5994  -3.4817  -2.6562  -2.5661
    -0.5506  -0.4979   1.6587   1.7218   2.5830   2.6116   3.0696   3.2004
     4.5218   4.6025   6.6695   7.0806

     occupation numbers 
     1.0000   1.0000   1.0000   1.0000   1.0000   1.0000   1.0000   1.0000
     1.0000   1.0000   1.0000   1.0000   1.0000   1.0000   1.0000   1.0000
     1.0000   1.0000   1.0000   1.0000   1.0000   1.0000   1.0000   1.0000
     1.0000   1.0000   0.0000   0.0000   0.0000   0.0000   0.0000   0.0000
     0.0000   0.0000   0.0000   0.0000

          k = 0.1285 0.1979 0.0000 ( 12773 PWs)   bands (ev):

   -61.1763 -61.1337 -35.5111 -35.4688 -35.3912 -35.3489 -35.3233 -35.2803
   -12.4244 -12.3855 -12.3607 -12.3360  -5.9456  -5.9065  -5.5395  -5.4554
    -4.4356  -4.3184  -3.8977  -3.7821  -3.5994  -3.4817  -2.6562  -2.5661
    -0.5506  -0.4979   1.6587   1.7218   2.5830   2.6116   3.0696   3.2004
     4.5218   4.6025   6.6695   7.0806

     occupation numbers 
     1.0000   1.0000   1.0000   1.0000   1.0000   1.0000   1.0000   1.0000
     1.0000   1.0000   1.0000   1.0000   1.0000   1.0000   1.0000   1.0000
     1.0000   1.0000   1.0000   1.0000   1.0000   1.0000   1.0000   1.0000
     1.0000   1.0000   0.0000   0.0000   0.0000   0.0000   0.0000   0.0000
     0.0000   0.0000   0.0000   0.0000

          k = 0.1285 0.2226 0.0000 ( 12760 PWs)   bands (ev):

   -61.1776 -61.1350 -35.5453 -35.5030 -35.3412 -35.3259 -35.2989 -35.2830
   -12.4802 -12.4406 -12.4034 -12.3953  -5.9009  -5.8118  -5.8052  -5.7562
    -4.5145  -4.3499  -3.6956  -3.5838  -3.2517  -3.0963  -2.5678  -2.4719
    -0.6596  -0.5923   1.8384   1.8896   2.7589   2.8456   2.9495   3.0698
     4.2374   4.3862   6.3179   6.7634

     occupation numbers 
     1.0000   1.0000   1.0000   1.0000   1.0000   1.0000   1.0000   1.0000
     1.0000   1.0000   1.0000   1.0000   1.0000   1.0000   1.0000   1.0000
     1.0000   1.0000   1.0000   1.0000   1.0000   1.0000   1.0000   1.0000
     1.0000   1.0000   0.0000   0.0000   0.0000   0.0000   0.0000   0.0000
     0.0000   0.0000   0.0000   0.0000

          k = 0.1285 0.2473 0.0000 ( 12760 PWs)   bands (ev):

   -61.1801 -61.1375 -35.5702 -35.5279 -35.3307 -35.2879 -35.2877 -35.2456
   -12.5965 -12.5339 -12.5061 -12.4661  -6.1706  -6.0887  -5.6243  -5.5517
    -4.5730  -4.4054  -3.7104  -3.6104  -2.5425  -2.4410  -2.3687  -2.3084
    -0.8058  -0.7316   1.9625   2.0610   2.6301   2.7365   3.1878   3.3466
     3.8904   4.0714   6.1349   6.5691

     occupation numbers 
     1.0000   1.0000   1.0000   1.0000   1.0000   1.0000   1.0000   1.0000
     1.0000   1.0000   1.0000   1.0000   1.0000   1.0000   1.0000   1.0000
     1.0000   1.0000   1.0000   1.0000   1.0000   1.0000   1.0000   1.0000
     1.0000   1.0000   0.0000   0.0000   0.0000   0.0000   0.0000   0.0000
     0.0000   0.0000   0.0000   0.0000

          k = 0.1499-0.0866 0.0000 ( 12724 PWs)   bands (ev):

   -61.1822 -61.1396 -35.5939 -35.5516 -35.3348 -35.2918 -35.2396 -35.1973
   -12.6915 -12.6194 -12.5796 -12.5244  -6.4249  -6.3447  -5.5004  -5.3840
    -4.6716  -4.5059  -3.5465  -3.4919  -2.6415  -2.3587  -1.2724  -1.1840
    -1.1751  -1.0715   2.0591   2.1059   2.4193   2.5606   3.3929   3.6397
     3.9062   4.1007   5.9044   6.2766

     occupation numbers 
     1.0000   1.0000   1.0000   1.0000   1.0000   1.0000   1.0000   1.0000
     1.0000   1.0000   1.0000   1.0000   1.0000   1.0000   1.0000   1.0000
     1.0000   1.0000   1.0000   1.0000   1.0000   1.0000   1.0000   1.0000
     1.0000   1.0000   0.0000   0.0000   0.0000   0.0000   0.0000   0.0000
     0.0000   0.0000   0.0000   0.0000

          k = 0.1499-0.0618 0.0000 ( 12772 PWs)   bands (ev):

   -61.1832 -61.1407 -35.5740 -35.5317 -35.3369 -35.2939 -35.2486 -35.2063
   -12.7581 -12.6775 -12.6055 -12.5393  -6.2765  -6.1902  -5.4415  -5.3318
    -4.5986  -4.4292  -3.5914  -3.5273  -2.5357  -2.2931  -1.7744  -1.6921
    -1.0027  -0.9355   1.9642   2.0653   2.3951   2.5197   3.3537   3.5531
     3.8562   3.9509   6.2012   6.6252

     occupation numbers 
     1.0000   1.0000   1.0000   1.0000   1.0000   1.0000   1.0000   1.0000
     1.0000   1.0000   1.0000   1.0000   1.0000   1.0000   1.0000   1.0000
     1.0000   1.0000   1.0000   1.0000   1.0000   1.0000   1.0000   1.0000
     1.0000   1.0000   0.0000   0.0000   0.0000   0.0000   0.0000   0.0000
     0.0000   0.0000   0.0000   0.0000

          k = 0.1499-0.0371 0.0000 ( 12794 PWs)   bands (ev):

   -61.1841 -61.1415 -35.5398 -35.4975 -35.3386 -35.2956 -35.2751 -35.2328
   -12.8167 -12.7290 -12.6202 -12.5447  -6.0159  -5.9107  -5.3669  -5.2900
    -4.4438  -4.2736  -3.7911  -3.6236  -2.4951  -2.3897  -2.2840  -2.1373
    -0.9861  -0.9317   1.7318   2.0317   2.4724   2.5297   2.9799   3.1657
     4.0030   4.1048   6.7054   7.1481

     occupation numbers 
     1.0000   1.0000   1.0000   1.0000   1.0000   1.0000   1.0000   1.0000
     1.0000   1.0000   1.0000   1.0000   1.0000   1.0000   1.0000   1.0000
     1.0000   1.0000   1.0000   1.0000   1.0000   1.0000   1.0000   1.0000
     1.0000   1.0000   0.0000   0.0000   0.0000   0.0000   0.0000   0.0000
     0.0000   0.0000   0.0000   0.0000

          k = 0.1499-0.0124 0.0000 ( 12821 PWs)   bands (ev):

   -61.1845 -61.1420 -35.5091 -35.4668 -35.3395 -35.3020 -35.2965 -35.2597
   -12.8508 -12.7589 -12.6265 -12.5454  -5.7993  -5.6669  -5.2999  -5.2598
    -4.2502  -4.0990  -3.9218  -3.6921  -3.0788  -2.9900  -2.0961  -2.0125
    -1.0272  -0.9687   1.5721   1.9852   2.5178   2.5665   2.6699   2.8330
     4.2002   4.2857   7.2672   7.5527

     occupation numbers 
     1.0000   1.0000   1.0000   1.0000   1.0000   1.0000   1.0000   1.0000
     1.0000   1.0000   1.0000   1.0000   1.0000   1.0000   1.0000   1.0000
     1.0000   1.0000   1.0000   1.0000   1.0000   1.0000   1.0000   1.0000
     1.0000   1.0000   0.0000   0.0000   0.0000   0.0000   0.0000   0.0000
     0.0000   0.0000   0.0000   0.0000

          k = 0.1499 0.0124 0.0000 ( 12821 PWs)   bands (ev):

   -61.1845 -61.1420 -35.5091 -35.4668 -35.3395 -35.3020 -35.2965 -35.2597
   -12.8508 -12.7589 -12.6265 -12.5454  -5.7993  -5.6669  -5.2999  -5.2598
    -4.2502  -4.0990  -3.9218  -3.6921  -3.0788  -2.9900  -2.0961  -2.0125
    -1.0272  -0.9687   1.5721   1.9852   2.5178   2.5665   2.6699   2.8330
     4.2002   4.2857   7.2672   7.5527

     occupation numbers 
     1.0000   1.0000   1.0000   1.0000   1.0000   1.0000   1.0000   1.0000
     1.0000   1.0000   1.0000   1.0000   1.0000   1.0000   1.0000   1.0000
     1.0000   1.0000   1.0000   1.0000   1.0000   1.0000   1.0000   1.0000
     1.0000   1.0000   0.0000   0.0000   0.0000   0.0000   0.0000   0.0000
     0.0000   0.0000   0.0000   0.0000

          k = 0.1499 0.0371 0.0000 ( 12794 PWs)   bands (ev):

   -61.1841 -61.1415 -35.5398 -35.4975 -35.3386 -35.2956 -35.2751 -35.2328
   -12.8167 -12.7290 -12.6202 -12.5447  -6.0159  -5.9107  -5.3669  -5.2900
    -4.4438  -4.2736  -3.7911  -3.6236  -2.4951  -2.3897  -2.2840  -2.1373
    -0.9861  -0.9317   1.7318   2.0317   2.4724   2.5297   2.9799   3.1657
     4.0030   4.1048   6.7054   7.1481

     occupation numbers 
     1.0000   1.0000   1.0000   1.0000   1.0000   1.0000   1.0000   1.0000
     1.0000   1.0000   1.0000   1.0000   1.0000   1.0000   1.0000   1.0000
     1.0000   1.0000   1.0000   1.0000   1.0000   1.0000   1.0000   1.0000
     1.0000   1.0000   0.0000   0.0000   0.0000   0.0000   0.0000   0.0000
     0.0000   0.0000   0.0000   0.0000

          k = 0.1499 0.0618 0.0000 ( 12772 PWs)   bands (ev):

   -61.1832 -61.1407 -35.5740 -35.5317 -35.3369 -35.2939 -35.2486 -35.2063
   -12.7581 -12.6775 -12.6055 -12.5393  -6.2765  -6.1902  -5.4415  -5.3318
    -4.5986  -4.4292  -3.5914  -3.5273  -2.5357  -2.2931  -1.7744  -1.6921
    -1.0027  -0.9355   1.9642   2.0653   2.3951   2.5197   3.3537   3.5531
     3.8562   3.9509   6.2012   6.6252

     occupation numbers 
     1.0000   1.0000   1.0000   1.0000   1.0000   1.0000   1.0000   1.0000
     1.0000   1.0000   1.0000   1.0000   1.0000   1.0000   1.0000   1.0000
     1.0000   1.0000   1.0000   1.0000   1.0000   1.0000   1.0000   1.0000
     1.0000   1.0000   0.0000   0.0000   0.0000   0.0000   0.0000   0.0000
     0.0000   0.0000   0.0000   0.0000

          k = 0.1499 0.0866 0.0000 ( 12724 PWs)   bands (ev):

   -61.1822 -61.1396 -35.5939 -35.5516 -35.3348 -35.2918 -35.2396 -35.1973
   -12.6915 -12.6194 -12.5796 -12.5244  -6.4249  -6.3447  -5.5004  -5.3840
    -4.6716  -4.5059  -3.5465  -3.4919  -2.6415  -2.3587  -1.2724  -1.1840
    -1.1751  -1.0715   2.0591   2.1059   2.4193   2.5606   3.3929   3.6397
     3.9062   4.1007   5.9044   6.2766

     occupation numbers 
     1.0000   1.0000   1.0000   1.0000   1.0000   1.0000   1.0000   1.0000
     1.0000   1.0000   1.0000   1.0000   1.0000   1.0000   1.0000   1.0000
     1.0000   1.0000   1.0000   1.0000   1.0000   1.0000   1.0000   1.0000
     1.0000   1.0000   0.0000   0.0000   0.0000   0.0000   0.0000   0.0000
     0.0000   0.0000   0.0000   0.0000

          k = 0.1499 0.1113 0.0000 ( 12746 PWs)   bands (ev):

   -61.1810 -61.1385 -35.5925 -35.5502 -35.3326 -35.2896 -35.2536 -35.2113
   -12.6344 -12.5699 -12.5430 -12.4982  -6.3883  -6.3095  -5.5589  -5.4582
    -4.6614  -4.4958  -3.6080  -3.5575  -2.6083  -2.3634  -1.7160  -1.6325
    -0.9047  -0.8304   2.0701   2.1051   2.5273   2.6285   3.5080   3.6737
     3.7706   3.8995   5.8840   6.2623

     occupation numbers 
     1.0000   1.0000   1.0000   1.0000   1.0000   1.0000   1.0000   1.0000
     1.0000   1.0000   1.0000   1.0000   1.0000   1.0000   1.0000   1.0000
     1.0000   1.0000   1.0000   1.0000   1.0000   1.0000   1.0000   1.0000
     1.0000   1.0000   0.0000   0.0000   0.0000   0.0000   0.0000   0.0000
     0.0000   0.0000   0.0000   0.0000

          k = 0.1499 0.1360 0.0000 ( 12760 PWs)   bands (ev):

   -61.1801 -61.1375 -35.5702 -35.5279 -35.3307 -35.2879 -35.2877 -35.2456
   -12.5965 -12.5339 -12.5061 -12.4661  -6.1706  -6.0887  -5.6243  -5.5517
    -4.5730  -4.4054  -3.7104  -3.6104  -2.5425  -2.4410  -2.3687  -2.3084
    -0.8058  -0.7316   1.9625   2.0610   2.6301   2.7365   3.1878   3.3466
     3.8904   4.0714   6.1349   6.5691

     occupation numbers 
     1.0000   1.0000   1.0000   1.0000   1.0000   1.0000   1.0000   1.0000
     1.0000   1.0000   1.0000   1.0000   1.0000   1.0000   1.0000   1.0000
     1.0000   1.0000   1.0000   1.0000   1.0000   1.0000   1.0000   1.0000
     1.0000   1.0000   0.0000   0.0000   0.0000   0.0000   0.0000   0.0000
     0.0000   0.0000   0.0000   0.0000

          k = 0.1499 0.1608 0.0000 ( 12765 PWs)   bands (ev):

   -61.1794 -61.1369 -35.5362 -35.4939 -35.3307 -35.3295 -35.2884 -35.2865
   -12.5771 -12.5115 -12.4808 -12.4390  -5.8748  -5.7729  -5.6776  -5.6310
    -4.4005  -4.2398  -3.8065  -3.6216  -3.2313  -3.0882  -2.4242  -2.3223
    -0.7874  -0.7302   1.7892   1.9728   2.6777   2.7911   2.8361   2.9711
     4.2329   4.3637   6.5940   7.0424

     occupation numbers 
     1.0000   1.0000   1.0000   1.0000   1.0000   1.0000   1.0000   1.0000
     1.0000   1.0000   1.0000   1.0000   1.0000   1.0000   1.0000   1.0000
     1.0000   1.0000   1.0000   1.0000   1.0000   1.0000   1.0000   1.0000
     1.0000   1.0000   0.0000   0.0000   0.0000   0.0000   0.0000   0.0000
     0.0000   0.0000   0.0000   0.0000

          k = 0.1499 0.1855 0.0000 ( 12769 PWs)   bands (ev):

   -61.1792 -61.1366 -35.5162 -35.4739 -35.3539 -35.3290 -35.3116 -35.2861
   -12.5714 -12.5040 -12.4717 -12.4283  -5.7425  -5.6897  -5.6601  -5.5913
    -4.1711  -4.1133  -3.8231  -3.6579  -3.6004  -3.5840  -2.3893  -2.3019
    -0.7890  -0.7388   1.7102   1.9260   2.6114   2.6603   2.8188   2.9464
     4.3873   4.4840   7.0507   7.1781

     occupation numbers 
     1.0000   1.0000   1.0000   1.0000   1.0000   1.0000   1.0000   1.0000
     1.0000   1.0000   1.0000   1.0000   1.0000   1.0000   1.0000   1.0000
     1.0000   1.0000   1.0000   1.0000   1.0000   1.0000   1.0000   1.0000
     1.0000   1.0000   0.0000   0.0000   0.0000   0.0000   0.0000   0.0000
     0.0000   0.0000   0.0000   0.0000

          k = 0.1499 0.2102 0.0000 ( 12765 PWs)   bands (ev):

   -61.1794 -61.1369 -35.5362 -35.4939 -35.3307 -35.3295 -35.2884 -35.2865
   -12.5771 -12.5115 -12.4808 -12.4390  -5.8748  -5.7729  -5.6776  -5.6310
    -4.4005  -4.2398  -3.8065  -3.6216  -3.2313  -3.0882  -2.4242  -2.3223
    -0.7874  -0.7302   1.7892   1.9728   2.6777   2.7911   2.8361   2.9711
     4.2329   4.3637   6.5940   7.0424

     occupation numbers 
     1.0000   1.0000   1.0000   1.0000   1.0000   1.0000   1.0000   1.0000
     1.0000   1.0000   1.0000   1.0000   1.0000   1.0000   1.0000   1.0000
     1.0000   1.0000   1.0000   1.0000   1.0000   1.0000   1.0000   1.0000
     1.0000   1.0000   0.0000   0.0000   0.0000   0.0000   0.0000   0.0000
     0.0000   0.0000   0.0000   0.0000

          k = 0.1499 0.2350 0.0000 ( 12760 PWs)   bands (ev):

   -61.1801 -61.1375 -35.5702 -35.5279 -35.3307 -35.2879 -35.2877 -35.2456
   -12.5965 -12.5339 -12.5061 -12.4661  -6.1706  -6.0887  -5.6243  -5.5517
    -4.5730  -4.4054  -3.7104  -3.6104  -2.5425  -2.4410  -2.3687  -2.3084
    -0.8058  -0.7316   1.9625   2.0610   2.6301   2.7365   3.1878   3.3466
     3.8904   4.0714   6.1349   6.5691

     occupation numbers 
     1.0000   1.0000   1.0000   1.0000   1.0000   1.0000   1.0000   1.0000
     1.0000   1.0000   1.0000   1.0000   1.0000   1.0000   1.0000   1.0000
     1.0000   1.0000   1.0000   1.0000   1.0000   1.0000   1.0000   1.0000
     1.0000   1.0000   0.0000   0.0000   0.0000   0.0000   0.0000   0.0000
     0.0000   0.0000   0.0000   0.0000

          k = 0.1499 0.2597 0.0000 ( 12746 PWs)   bands (ev):

   -61.1810 -61.1385 -35.5925 -35.5502 -35.3326 -35.2896 -35.2536 -35.2113
   -12.6344 -12.5699 -12.5430 -12.4982  -6.3883  -6.3095  -5.5589  -5.4582
    -4.6614  -4.4958  -3.6080  -3.5575  -2.6083  -2.3634  -1.7160  -1.6325
    -0.9047  -0.8304   2.0701   2.1051   2.5273   2.6285   3.5080   3.6737
     3.7706   3.8995   5.8840   6.2623

     occupation numbers 
     1.0000   1.0000   1.0000   1.0000   1.0000   1.0000   1.0000   1.0000
     1.0000   1.0000   1.0000   1.0000   1.0000   1.0000   1.0000   1.0000
     1.0000   1.0000   1.0000   1.0000   1.0000   1.0000   1.0000   1.0000
     1.0000   1.0000   0.0000   0.0000   0.0000   0.0000   0.0000   0.0000
     0.0000   0.0000   0.0000   0.0000

     highest occupied, lowest unoccupied level (ev):    -0.1724    1.3026

     Writing all to output data dir ./calc.save/

     init_run     :      0.21s CPU      0.21s WALL (       1 calls)
     electrons    :    542.99s CPU    306.04s WALL (       1 calls)

     Called by init_run:
     wfcinit      :      0.00s CPU      0.01s WALL (       1 calls)
     wfcinit:wfcr :      6.18s CPU      4.05s WALL (     225 calls)
     potinit      :      0.01s CPU      0.01s WALL (       1 calls)
     hinit0       :      0.16s CPU      0.16s WALL (       1 calls)

     Called by electrons:
     c_bands      :    542.96s CPU    306.02s WALL (       1 calls)
     v_of_rho     :      0.01s CPU      0.01s WALL (       1 calls)
     v_h          :      0.00s CPU      0.00s WALL (       1 calls)
     v_xc         :      0.01s CPU      0.01s WALL (       1 calls)

     Called by c_bands:
     init_us_2    :      0.07s CPU      0.05s WALL (     225 calls)
     init_us_2:cp :      0.07s CPU      0.05s WALL (     225 calls)
     cegterg      :    526.05s CPU    291.72s WALL (     728 calls)

     Called by sum_band:

     Called by *egterg:
     cdiaghg      :    145.51s CPU     65.19s WALL (   13170 calls)
     cegterg:over :    109.94s CPU     42.26s WALL (   12945 calls)
     cegterg:upda :     15.23s CPU      4.24s WALL (   12945 calls)
     cegterg:last :     14.30s CPU      6.22s WALL (    8492 calls)
     h_psi        :    157.14s CPU    135.94s WALL (   13898 calls)
     g_psi        :      2.14s CPU      1.80s WALL (   12945 calls)

     Called by h_psi:
     h_psi:calbec :     12.24s CPU      9.31s WALL (   13898 calls)
     vloc_psi     :    125.20s CPU    121.80s WALL (   13898 calls)
     add_vuspsi   :     19.28s CPU      4.45s WALL (   13898 calls)

     General routines
     calbec       :     12.18s CPU      9.26s WALL (   13898 calls)
     fft          :      0.03s CPU      0.03s WALL (      10 calls)
     fftw         :    119.92s CPU    116.83s WALL (  601352 calls)
     davcio       :      0.38s CPU      0.82s WALL (     450 calls)

     Parallel routines

     PWSCF        :   9m 6.05s CPU   5m12.31s WALL


   This run was terminated on:  18:20:17  27Jun2023            

=------------------------------------------------------------------------------=
   JOB DONE.
=------------------------------------------------------------------------------=
