
     Program PWSCF v.7.1 starts on 29Jun2023 at 17:20: 7 

     This program is part of the open-source Quantum ESPRESSO suite
     for quantum simulation of materials; please cite
         "P. Giannozzi et al., J. Phys.:Condens. Matter 21 395502 (2009);
         "P. Giannozzi et al., J. Phys.:Condens. Matter 29 465901 (2017);
         "P. Giannozzi et al., J. Chem. Phys. 152 154105 (2020);
          URL http://www.quantum-espresso.org", 
     in publications or presentations arising from this work. More details at
     http://www.quantum-espresso.org/quote

     Parallel version (MPI), running on    42 processors

     MPI processes distributed on     1 nodes
     566147 MiB available memory on the printing compute node when the environment starts

     Waiting for input...
     Reading input from standard input

     Current dimensions of program PWSCF are:
     Max number of different atomic species (ntypx) = 10
     Max number of k-points (npk) =  40000
     Max angular momentum in pseudopotentials (lmaxx) =  4
     Message from routine cell_base_init:
     DEPRECATED: use true lattice parameter, not A to a.u. conversion factor

     IMPORTANT: XC functional enforced from input :
     Exchange-correlation= PBE
                           (   1   4   3   4   0   0   0)
     Any further DFT definition will be discarded
     Please, verify this is what you really want

     Message from routine setup:
     using ibrav=0 with symmetry is DISCOURAGED, use correct ibrav instead

     R & G space division:  proc/nbgrp/npool/nimage =      42
     Subspace diagonalization in iterative solution of the eigenvalue problem:
     a serial algorithm will be used


     Parallelization info
     --------------------
     sticks:   dense  smooth     PW     G-vecs:    dense   smooth      PW
     Min          12      12      3                 2634     2634     409
     Max          13      13      4                 2673     2673     464
     Sum         511     511    151               111175   111175   18389

     Using Slab Decomposition



     bravais-lattice index     =            0
     lattice parameter (alat)  =       1.8897  a.u.
     unit-cell volume          =    2325.7876 (a.u.)^3
     number of atoms/cell      =            6
     number of atomic types    =            4
     number of electrons       =        86.00
     number of Kohn-Sham states=           53
     kinetic-energy cutoff     =      50.0000  Ry
     charge density cutoff     =     199.9999  Ry
     scf convergence threshold =      7.3E-08
     mixing beta               =       0.7000
     number of iterations used =            8  plain     mixing
     Exchange-correlation= PBE
                           (   1   4   3   4   0   0   0)

     celldm(1)=   1.889726  celldm(2)=   0.000000  celldm(3)=   0.000000
     celldm(4)=   0.000000  celldm(5)=   0.000000  celldm(6)=   0.000000

     crystal axes: (cart. coord. in units of alat)
               a(1) = (   3.224300   0.000000   0.000000 )  
               a(2) = (  -1.612150   2.792326   0.000000 )  
               a(3) = (   0.000000   0.000000  38.280000 )  

     reciprocal axes: (cart. coord. in units 2 pi/alat)
               b(1) = (  0.310145  0.179062 -0.000000 )  
               b(2) = (  0.000000  0.358124  0.000000 )  
               b(3) = (  0.000000 -0.000000  0.026123 )  


     PseudoPot. # 1 for Mo read from file:
     /ccs/home/dpalmer3/qe-7.1/pseudo/Mo.UPF
     MD5 check sum: e75ed155aa411dd1617a1e98b4cfb1d3
     Pseudo is Norm-conserving, Zval = 14.0
     Generated using ONCVPSP code by D. R. Hamann
     Using radial grid of  602 points,  6 beta functions with: 
                l(1) =   0
                l(2) =   0
                l(3) =   1
                l(4) =   1
                l(5) =   2
                l(6) =   2

     PseudoPot. # 2 for Se read from file:
     /ccs/home/dpalmer3/qe-7.1/pseudo/Se.UPF
     MD5 check sum: e78e48a4f5d8ce1f8dc76ec1271f249c
     Pseudo is Norm-conserving, Zval =  6.0
     Generated using ONCVPSP code by D. R. Hamann
     Using radial grid of  602 points,  6 beta functions with: 
                l(1) =   0
                l(2) =   0
                l(3) =   1
                l(4) =   1
                l(5) =   2
                l(6) =   2

     PseudoPot. # 3 for W  read from file:
     /ccs/home/dpalmer3/qe-7.1/pseudo/W.UPF
     MD5 check sum: b6096f31a98cdd82a46cfdcd1f902baf
     Pseudo is Norm-conserving, Zval = 28.0
     Generated using ONCVPSP code by D. R. Hamann
     Using radial grid of  602 points,  8 beta functions with: 
                l(1) =   0
                l(2) =   0
                l(3) =   1
                l(4) =   1
                l(5) =   2
                l(6) =   2
                l(7) =   3
                l(8) =   3

     PseudoPot. # 4 for Te read from file:
     /ccs/home/dpalmer3/qe-7.1/pseudo/Te.UPF
     MD5 check sum: dd4de4dac1e38587f63aaf3700bb29d3
     Pseudo is Norm-conserving, Zval = 16.0
     Generated using ONCVPSP code by D. R. Hamann
     Using radial grid of  602 points,  6 beta functions with: 
                l(1) =   0
                l(2) =   0
                l(3) =   1
                l(4) =   1
                l(5) =   2
                l(6) =   2

     atomic species   valence    mass     pseudopotential
        Mo1           14.00    95.95000     Mo( 1.00)
        Se1            6.00    78.97100     Se( 1.00)
        W1            28.00   183.84000     W ( 1.00)
        Te1           16.00   127.60000     Te( 1.00)

      6 Sym. Ops. (no inversion) found



   Cartesian axes

     site n.     atom                  positions (alat units)
         1           Mo1 tau(   1) = (   0.0000000   0.0000000  11.6650000  )
         2           Se1 tau(   2) = (   1.6121500   0.9307752  13.3300000  )
         3           Se1 tau(   3) = (   1.6121500   0.9307752  10.0000000  )
         4           W1  tau(   4) = (   1.6121500   0.9307752  18.2800000  )
         5           Te1 tau(   5) = (  -0.0000000   1.8615505  20.0300000  )
         6           Te1 tau(   6) = (  -0.0000000   1.8615505  16.5300000  )

     number of k points=    27
                       cart. coord. in units 2pi/alat
        k(    1) = (   0.0000000   0.0000000   0.0000000), wk =   0.0088889
        k(    2) = (   0.0000000   0.0238750   0.0000000), wk =   0.0533333
        k(    3) = (   0.0000000   0.0477499   0.0000000), wk =   0.0533333
        k(    4) = (   0.0000000   0.0716249   0.0000000), wk =   0.0533333
        k(    5) = (   0.0000000   0.0954998   0.0000000), wk =   0.0533333
        k(    6) = (   0.0000000   0.1193748   0.0000000), wk =   0.0533333
        k(    7) = (   0.0000000   0.1432498   0.0000000), wk =   0.0533333
        k(    8) = (   0.0000000   0.1671247   0.0000000), wk =   0.0533333
        k(    9) = (   0.0206763   0.0358124   0.0000000), wk =   0.0533333
        k(   10) = (   0.0206763   0.0596874   0.0000000), wk =   0.1066667
        k(   11) = (   0.0206763   0.0835624   0.0000000), wk =   0.1066667
        k(   12) = (   0.0206763   0.1074373   0.0000000), wk =   0.1066667
        k(   13) = (   0.0206763   0.1313123   0.0000000), wk =   0.1066667
        k(   14) = (   0.0206763   0.1551872   0.0000000), wk =   0.1066667
        k(   15) = (   0.0206763   0.1790622   0.0000000), wk =   0.0533333
        k(   16) = (   0.0413526   0.0716249   0.0000000), wk =   0.0533333
        k(   17) = (   0.0413526   0.0954998   0.0000000), wk =   0.1066667
        k(   18) = (   0.0413526   0.1193748   0.0000000), wk =   0.1066667
        k(   19) = (   0.0413526   0.1432498   0.0000000), wk =   0.1066667
        k(   20) = (   0.0413526   0.1671247   0.0000000), wk =   0.1066667
        k(   21) = (   0.0620290   0.1074373   0.0000000), wk =   0.0533333
        k(   22) = (   0.0620290   0.1313123   0.0000000), wk =   0.1066667
        k(   23) = (   0.0620290   0.1551872   0.0000000), wk =   0.1066667
        k(   24) = (   0.0620290   0.1790622   0.0000000), wk =   0.0533333
        k(   25) = (   0.0827053   0.1432498   0.0000000), wk =   0.0533333
        k(   26) = (   0.0827053   0.1671247   0.0000000), wk =   0.1066667
        k(   27) = (   0.1033816   0.1790622   0.0000000), wk =   0.0177778

     Dense  grid:   111175 G-vectors     FFT dimensions: (  27,  27, 360)

     Estimated max dynamical RAM per process >      22.47 MB

     Estimated total dynamical RAM >     943.67 MB

     Atomic positions and unit cell read from directory:
     ./calc.save/


     The initial density is read from file :
     ./calc.save/charge-density

     Starting wfcs from file

     total cpu time spent up to now is        5.4 secs

     Self-consistent Calculation

     iteration #  1     ecut=    50.00 Ry     beta= 0.70
     Davidson diagonalization with overlap
     c_bands:  2 eigenvalues not converged
     c_bands:  1 eigenvalues not converged
     c_bands:  2 eigenvalues not converged
     c_bands:  1 eigenvalues not converged
     c_bands:  1 eigenvalues not converged
     c_bands:  2 eigenvalues not converged
     c_bands:  1 eigenvalues not converged
     c_bands:  2 eigenvalues not converged
     c_bands:  2 eigenvalues not converged
     c_bands:  1 eigenvalues not converged
     c_bands:  1 eigenvalues not converged
     c_bands:  1 eigenvalues not converged
     ethr =  1.00E-05,  avg # of iterations = 18.4

     Threshold (ethr) on eigenvalues was too large:
     Diagonalizing with lowered threshold

     Davidson diagonalization with overlap
     ethr =  5.51E-09,  avg # of iterations =  5.0

     total cpu time spent up to now is       48.3 secs

     total energy              =   -1068.52707950 Ry
     estimated scf accuracy    <       0.00000357 Ry

     iteration #  2     ecut=    50.00 Ry     beta= 0.70
     Davidson diagonalization with overlap
     ethr =  4.15E-09,  avg # of iterations =  4.1

     total cpu time spent up to now is       56.7 secs

     total energy              =   -1068.52706939 Ry
     estimated scf accuracy    <       0.00016148 Ry

     iteration #  3     ecut=    50.00 Ry     beta= 0.70
     Davidson diagonalization with overlap
     ethr =  4.15E-09,  avg # of iterations =  3.9

     total cpu time spent up to now is       64.7 secs

     total energy              =   -1068.52708215 Ry
     estimated scf accuracy    <       0.00000231 Ry

     iteration #  4     ecut=    50.00 Ry     beta= 0.70
     Davidson diagonalization with overlap
     ethr =  2.69E-09,  avg # of iterations =  2.0

     total cpu time spent up to now is       69.0 secs

     End of self-consistent calculation

          k = 0.0000 0.0000 0.0000 ( 13759 PWs)   bands (ev):

   -71.0493 -58.5868 -35.5512 -35.3406 -35.3406 -34.4134 -34.4134 -34.3754
   -34.3754 -34.3314 -34.3247 -34.3247 -34.3144 -34.2450 -34.2450 -32.8034
   -32.5498 -32.5498 -25.2793 -25.2793 -25.2788 -25.2788 -25.2788 -25.2239
   -25.2022 -12.4464 -12.1680 -11.3751 -10.6025  -4.4666  -3.5016  -0.7465
     0.0147   0.0147   0.4987   0.5321   0.5321   1.0794   1.0794   1.2677
     1.8289   1.8289   2.2320   5.2505   5.2505   5.5044   5.5044   6.6116
     6.9089   6.9636   6.9636   7.3533   7.4589

          k = 0.0000 0.0239 0.0000 ( 13780 PWs)   bands (ev):

   -71.0486 -58.5854 -35.5563 -35.3510 -35.3441 -34.4109 -34.4092 -34.3771
   -34.3745 -34.3298 -34.3249 -34.3214 -34.3128 -34.2480 -34.2431 -32.8003
   -32.5644 -32.5531 -25.2795 -25.2791 -25.2791 -25.2789 -25.2785 -25.2235
   -25.2027 -12.3767 -12.0778 -11.3359 -10.5458  -4.3695  -3.4185  -0.8116
    -0.1566   0.0835   0.2936   0.3401   0.6177   0.9671   1.0610   1.3591
     1.7003   1.7576   2.2637   5.0517   5.1978   5.3371   5.4091   6.5668
     6.6538   6.9756   7.0299   7.0561   7.2256

          k = 0.0000 0.0477 0.0000 ( 13802 PWs)   bands (ev):

   -71.0469 -58.5815 -35.5704 -35.3807 -35.3541 -34.4040 -34.3999 -34.3820
   -34.3717 -34.3258 -34.3254 -34.3118 -34.3066 -34.2550 -34.2380 -32.7915
   -32.6054 -32.5624 -25.2800 -25.2799 -25.2791 -25.2786 -25.2778 -25.2223
   -25.2041 -12.1746 -11.8104 -11.2209 -10.3777  -4.0912  -3.1858  -1.0001
    -0.6059  -0.2136  -0.1248   0.2807   0.6800   0.8660   1.0167   1.3691
     1.4061   1.5814   2.1561   4.6223   4.7683   5.1188   5.5944   5.7225
     6.0274   6.6864   7.0279   7.2694   7.3017

          k = 0.0000 0.0716 0.0000 ( 13858 PWs)   bands (ev):

   -71.0443 -58.5757 -35.5903 -35.4250 -35.3689 -34.3940 -34.3919 -34.3894
   -34.3667 -34.3258 -34.3227 -34.3037 -34.2866 -34.2611 -34.2312 -32.7786
   -32.6653 -32.5761 -25.2813 -25.2804 -25.2794 -25.2778 -25.2769 -25.2206
   -25.2061 -11.8596 -11.3809 -11.0368 -10.1048  -3.6808  -2.8696  -1.3242
    -1.1816  -0.9332  -0.7010   0.3164   0.5791   0.8058   0.9453   1.2468
     1.2761   1.3113   1.7530   4.1728   4.6191   4.7909   4.9321   5.7851
     5.8410   6.1106   7.4264   7.4813   7.7097

          k = 0.0000 0.0955 0.0000 ( 13902 PWs)   bands (ev):

   -71.0414 -58.5690 -35.6121 -35.4765 -35.3859 -34.3984 -34.3879 -34.3828
   -34.3598 -34.3261 -34.3237 -34.2962 -34.2620 -34.2572 -34.2245 -32.7637
   -32.7334 -32.5918 -25.2828 -25.2810 -25.2798 -25.2770 -25.2759 -25.2186
   -25.2084 -11.4637 -10.8907 -10.7243  -9.7425  -3.2818  -2.6850  -1.8561
    -1.7122  -1.6176  -1.3671  -0.0406   0.4380   0.5210   0.9283   0.9460
     1.0425   1.3015   1.7035   3.9499   4.3621   4.5055   5.0467   5.5534
     5.9578   6.1173   7.6178   7.9336   8.2322

          k = 0.0000 0.1194 0.0000 ( 13908 PWs)   bands (ev):

   -71.0385 -58.5626 -35.6321 -35.5264 -35.4022 -34.4074 -34.3871 -34.3727
   -34.3521 -34.3281 -34.3257 -34.2888 -34.2573 -34.2276 -34.2191 -32.7979
   -32.7495 -32.6068 -25.2842 -25.2816 -25.2802 -25.2761 -25.2749 -25.2166
   -25.2106 -11.0373 -10.6159 -10.0805  -9.3250  -3.3491  -3.0530  -2.4677
    -2.1865  -1.9915  -1.7089  -0.3413   0.1349   0.1627   0.6573   0.8184
     1.1129   1.2547   2.1424   4.0424   4.3302   4.4207   5.2412   5.3551
     6.2604   6.2809   7.6751   8.2470   8.6217

          k = 0.0000 0.1432 0.0000 ( 13928 PWs)   bands (ev):

   -71.0363 -58.5576 -35.6471 -35.5657 -35.4149 -34.4147 -34.3875 -34.3654
   -34.3455 -34.3327 -34.3247 -34.2830 -34.2518 -34.2155 -34.2037 -32.8477
   -32.7383 -32.6184 -25.2853 -25.2820 -25.2806 -25.2755 -25.2741 -25.2151
   -25.2123 -10.6578 -10.4088  -9.3846  -8.9215  -4.1024  -3.5253  -3.1240
    -2.6564  -1.9884  -1.7258  -0.5552  -0.0938  -0.0306   0.4822   0.9035
     1.2141   1.4909   2.4551   4.2775   4.3333   4.6217   5.1449   5.6201
     6.3401   6.5286   7.5057   7.6849   8.3686

          k = 0.0000 0.1671 0.0000 ( 13932 PWs)   bands (ev):

   -71.0351 -58.5549 -35.6552 -35.5872 -35.4219 -34.4187 -34.3880 -34.3618
   -34.3416 -34.3353 -34.3238 -34.2798 -34.2483 -34.2137 -34.1906 -32.8748
   -32.7322 -32.6248 -25.2859 -25.2823 -25.2807 -25.2751 -25.2737 -25.2143
   -25.2132 -10.4275 -10.2858  -8.8748  -8.6543  -4.7254  -3.8301  -3.5631
    -2.9290  -1.9706  -1.7570  -0.6658  -0.2270  -0.0925   0.4022   1.1525
     1.3738   1.6061   2.5972   4.2890   4.6163   4.7823   5.1765   5.7704
     6.3725   6.5914   6.8691   7.6803   7.8512

          k = 0.0207 0.0358 0.0000 ( 13789 PWs)   bands (ev):

   -71.0475 -58.5828 -35.5659 -35.3708 -35.3511 -34.4066 -34.4022 -34.3800
   -34.3731 -34.3269 -34.3253 -34.3146 -34.3091 -34.2530 -34.2395 -32.7943
   -32.5917 -32.5599 -25.2797 -25.2797 -25.2790 -25.2788 -25.2780 -25.2227
   -25.2036 -12.2408 -11.8989 -11.2588 -10.4334  -4.1814  -3.2599  -0.9337
    -0.4624  -0.0441   0.0268   0.2123   0.7023   0.7773   1.0739   1.3902
     1.4357   1.6956   2.2412   4.7679   4.8212   5.1754   5.5325   6.0670
     6.1730   6.7083   6.9501   7.2068   7.2342

          k = 0.0207 0.0597 0.0000 ( 13831 PWs)   bands (ev):

   -71.0453 -58.5779 -35.5828 -35.4071 -35.3642 -34.3994 -34.3926 -34.3853
   -34.3700 -34.3261 -34.3233 -34.3063 -34.2950 -34.2596 -34.2335 -32.7835
   -32.6409 -32.5727 -25.2808 -25.2801 -25.2793 -25.2784 -25.2771 -25.2212
   -25.2053 -11.9822 -11.5495 -11.1095 -10.2125  -3.8328  -2.9788  -1.1614
    -0.9629  -0.6445  -0.4212   0.2519   0.4385   0.8352   1.0129   1.0964
     1.4160   1.5623   2.0245   4.3170   4.6213   4.8367   5.1820   5.6810
     5.8741   6.0692   7.1683   7.4728   7.5624

          k = 0.0207 0.0836 0.0000 ( 13870 PWs)   bands (ev):

   -71.0425 -58.5717 -35.6036 -35.4540 -35.3811 -34.3928 -34.3917 -34.3842
   -34.3647 -34.3268 -34.3225 -34.2991 -34.2691 -34.2626 -34.2268 -32.7696
   -32.7032 -32.5891 -25.2822 -25.2806 -25.2797 -25.2776 -25.2761 -25.2193
   -25.2075 -11.6260 -11.0666 -10.8821  -9.8936  -3.4066  -2.6924  -1.5772
    -1.4568  -1.3473  -1.0140  -0.1874   0.2611   0.6793   0.8760   1.0811
     1.2885   1.5013   1.6956   3.9831   4.3730   4.5990   4.8307   5.5096
     5.7055   6.1152   7.3592   7.8451   8.0335

          k = 0.0207 0.1074 0.0000 ( 13884 PWs)   bands (ev):

   -71.0396 -58.5651 -35.6243 -35.5037 -35.3987 -34.4014 -34.3877 -34.3758
   -34.3578 -34.3270 -34.3258 -34.2917 -34.2604 -34.2387 -34.2208 -32.7677
   -32.7551 -32.6062 -25.2836 -25.2811 -25.2802 -25.2768 -25.2751 -25.2174
   -25.2098 -11.2125 -10.7160 -10.3663  -9.4998  -3.1690  -2.7786  -2.1357
    -1.9454  -1.8052  -1.6131  -0.5037  -0.1361   0.5726   0.7324   0.7557
     1.0918   1.3367   1.9919   3.8668   4.2129   4.4846   5.0490   5.2916
     5.9073   6.3008   7.3762   8.3453   8.5972

          k = 0.0207 0.1313 0.0000 ( 13903 PWs)   bands (ev):

   -71.0371 -58.5594 -35.6416 -35.5474 -35.4141 -34.4093 -34.3868 -34.3681
   -34.3507 -34.3307 -34.3264 -34.2852 -34.2551 -34.2163 -34.2115 -32.8233
   -32.7424 -32.6210 -25.2848 -25.2816 -25.2806 -25.2760 -25.2743 -25.2157
   -25.2117 -10.8041 -10.4849  -9.6722  -9.0800  -3.6548  -3.2618  -2.7784
    -2.4362  -1.9697  -1.6789  -0.6747  -0.3458   0.2822   0.6260   0.6623
     0.8484   1.5187   2.2599   4.0058   4.3244   4.5189   5.2150   5.4386
     6.1084   6.4523   7.2542   8.1214   8.8217

          k = 0.0207 0.1552 0.0000 ( 13929 PWs)   bands (ev):

   -71.0354 -58.5555 -35.6531 -35.5772 -35.4245 -34.4149 -34.3870 -34.3632
   -34.3457 -34.3341 -34.3254 -34.2809 -34.2507 -34.2137 -34.1928 -32.8607
   -32.7337 -32.6310 -25.2856 -25.2820 -25.2808 -25.2754 -25.2738 -25.2145
   -25.2130 -10.4916 -10.3164  -9.0384  -8.7287  -4.4076  -3.6519  -3.3701
    -2.8303  -1.9409  -1.7076  -0.7469  -0.4320   0.0640   0.4860   0.8147
     0.9262   1.7040   2.3634   4.2163   4.5559   4.7213   5.2832   5.7159
     6.1285   6.6257   7.0465   7.2168   8.2413

          k = 0.0207 0.1791 0.0000 ( 13940 PWs)   bands (ev):

   -71.0348 -58.5542 -35.6570 -35.5877 -35.4282 -34.4169 -34.3871 -34.3616
   -34.3440 -34.3351 -34.3249 -34.2793 -34.2490 -34.2128 -34.1862 -32.8739
   -32.7307 -32.6346 -25.2859 -25.2821 -25.2809 -25.2752 -25.2736 -25.2141
   -25.2134 -10.3735 -10.2518  -8.7534  -8.5847  -4.7508  -3.8073  -3.6062
    -2.9732  -1.9427  -1.7318  -0.7646  -0.4501  -0.0191   0.4137   0.9378
     1.0091   1.7890   2.3815   4.2812   4.7175   4.8889   5.2774   5.8600
     6.0929   6.6647   6.8644   6.9333   7.8291

          k = 0.0414 0.0716 0.0000 ( 13847 PWs)   bands (ev):

   -71.0429 -58.5726 -35.6005 -35.4448 -35.3807 -34.3942 -34.3891 -34.3835
   -34.3682 -34.3275 -34.3221 -34.3001 -34.2728 -34.2631 -34.2276 -32.7717
   -32.6902 -32.5904 -25.2819 -25.2803 -25.2797 -25.2781 -25.2761 -25.2196
   -25.2072 -11.6820 -11.1394 -10.9227  -9.9447  -3.4551  -2.7050  -1.4453
    -1.3374  -1.2004  -0.7715  -0.3848   0.0572   0.5609   0.9014   1.1819
     1.3743   1.6330   1.8611   4.0007   4.3871   4.5529   4.7662   5.3617
     5.5209   6.1275   7.2316   7.8297   7.9719

          k = 0.0414 0.0955 0.0000 ( 13859 PWs)   bands (ev):

   -71.0402 -58.5665 -35.6199 -35.4878 -35.4002 -34.3944 -34.3895 -34.3757
   -34.3645 -34.3288 -34.3245 -34.2932 -34.2626 -34.2442 -34.2215 -32.7581
   -32.7451 -32.6119 -25.2831 -25.2806 -25.2802 -25.2776 -25.2752 -25.2178
   -25.2093 -11.3058 -10.7726 -10.5098  -9.5903  -3.1135  -2.6018  -1.8659
    -1.7270  -1.5900  -1.3470  -0.8354  -0.5418   0.4384   0.5033   1.0018
     1.3774   1.4911   1.9614   3.7363   4.0600   4.5281   4.7314   5.2074
     5.5061   6.3082   7.2415   8.3274   8.5029

          k = 0.0414 0.1194 0.0000 ( 13901 PWs)   bands (ev):

   -71.0376 -58.5606 -35.6377 -35.5289 -35.4192 -34.4007 -34.3866 -34.3690
   -34.3590 -34.3297 -34.3287 -34.2868 -34.2586 -34.2165 -34.2157 -32.7967
   -32.7451 -32.6330 -25.2843 -25.2810 -25.2807 -25.2768 -25.2744 -25.2161
   -25.2113 -10.9034 -10.5348  -9.8581  -9.1831  -3.2403  -2.9648  -2.3778
    -2.1874  -1.8607  -1.5829  -1.0194  -0.7462   0.1157   0.2261   0.6711
     1.0723   1.5231   2.1096   3.7122   4.1447   4.5682   4.9928   5.3301
     5.6146   6.3696   7.2622   8.8591   8.9331

          k = 0.0414 0.1432 0.0000 ( 13901 PWs)   bands (ev):

   -71.0356 -58.5561 -35.6512 -35.5612 -35.4341 -34.4064 -34.3854 -34.3641
   -34.3538 -34.3331 -34.3289 -34.2820 -34.2545 -34.2131 -34.1931 -32.8365
   -32.7349 -32.6495 -25.2851 -25.2813 -25.2812 -25.2761 -25.2739 -25.2147
   -25.2129 -10.5493 -10.3389  -9.1859  -8.7911  -3.9131  -3.3437  -3.0603
    -2.6899  -1.8496  -1.5886  -1.0195  -0.8079   0.0553   0.1928   0.3407
     0.6996   1.6973   2.1136   3.9990   4.4766   4.6805   5.2745   5.4844
     5.7298   6.3083   7.2868   7.8233   8.8291

          k = 0.0414 0.1671 0.0000 ( 13914 PWs)   bands (ev):

   -71.0345 -58.5536 -35.6583 -35.5789 -35.4423 -34.4098 -34.3850 -34.3617
   -34.3510 -34.3348 -34.3283 -34.2796 -34.2521 -34.2113 -34.1806 -32.8581
   -32.7293 -32.6586 -25.2856 -25.2815 -25.2814 -25.2757 -25.2737 -25.2141
   -25.2136 -10.3379 -10.2210  -8.7030  -8.5325  -4.4652  -3.5845  -3.5039
    -2.9714  -1.8738  -1.6533  -0.9516  -0.8186   0.0401   0.1696   0.3262
     0.4798   1.8587   2.1293   4.2156   4.7119   4.9380   5.4103   5.5470
     5.8517   6.1911   6.9770   7.3831   8.1324

          k = 0.0620 0.1074 0.0000 ( 13873 PWs)   bands (ev):

   -71.0378 -58.5611 -35.6363 -35.5206 -35.4228 -34.3955 -34.3870 -34.3687
   -34.3642 -34.3309 -34.3285 -34.2874 -34.2601 -34.2171 -34.2164 -32.7840
   -32.7461 -32.6405 -25.2840 -25.2809 -25.2806 -25.2773 -25.2744 -25.2162
   -25.2112 -10.9384 -10.5522  -9.9220  -9.2187  -3.0798  -2.8135  -2.1413
    -2.0240  -1.7709  -1.5304  -1.2440  -0.9495  -0.1758  -0.0306   0.8370
     1.2219   1.5199   2.0655   3.5892   4.0689   4.5833   4.8203   5.2771
     5.3804   6.3915   7.3255   8.9085   9.0603

          k = 0.0620 0.1313 0.0000 ( 13885 PWs)   bands (ev):

   -71.0357 -58.5564 -35.6500 -35.5476 -35.4440 -34.3975 -34.3848 -34.3637
   -34.3622 -34.3330 -34.3319 -34.2828 -34.2572 -34.2126 -34.1927 -32.8147
   -32.7356 -32.6683 -25.2847 -25.2815 -25.2806 -25.2768 -25.2740 -25.2148
   -25.2129 -10.5833 -10.3507  -9.2709  -8.8265  -3.4833  -3.0764  -2.7441
    -2.5696  -1.7412  -1.4270  -1.2803  -1.0408  -0.6727  -0.4308   0.5160
     0.8576   1.6597   2.0024   3.8195   4.3694   4.7064   4.9713   5.1813
     5.5565   6.4271   7.5765   8.4349   9.3417

          k = 0.0620 0.1552 0.0000 ( 13894 PWs)   bands (ev):

   -71.0343 -58.5532 -35.6591 -35.5653 -35.4591 -34.3998 -34.3835 -34.3608
   -34.3596 -34.3350 -34.3328 -34.2801 -34.2552 -34.2102 -34.1761 -32.8340
   -32.7284 -32.6886 -25.2851 -25.2819 -25.2807 -25.2763 -25.2738 -25.2143
   -25.2135 -10.3201 -10.1996  -8.7005  -8.5022  -3.9900  -3.3245  -3.2442
    -2.9455  -1.7902  -1.5889  -1.2464  -1.0647  -0.6761  -0.5088   0.1865
     0.5485   1.8583   2.0418   4.0835   4.5652   4.9391   4.9980   5.1672
     5.7320   6.4282   7.4710   7.9251   8.6545

          k = 0.0620 0.1791 0.0000 ( 13923 PWs)   bands (ev):

   -71.0338 -58.5520 -35.6622 -35.5714 -35.4645 -34.4008 -34.3831 -34.3598
   -34.3586 -34.3357 -34.3328 -34.2792 -34.2545 -34.2094 -34.1702 -32.8405
   -32.7259 -32.6961 -25.2853 -25.2821 -25.2807 -25.2761 -25.2738 -25.2146
   -25.2133 -10.2245 -10.1399  -8.4548  -8.3704  -4.2278  -3.5365  -3.3202
    -3.0808  -1.8673  -1.6923  -1.2057  -1.0364  -0.6616  -0.4613   0.0387
     0.4244   1.9692   2.1166   4.1118   4.6807   4.9202   5.0891   5.1622
     5.9179   6.3621   7.1332   8.0037   8.3038

          k = 0.0827 0.1432 0.0000 ( 13889 PWs)   bands (ev):

   -71.0342 -58.5530 -35.6593 -35.5578 -35.4676 -34.3937 -34.3832 -34.3661
   -34.3586 -34.3357 -34.3347 -34.2804 -34.2565 -34.2098 -34.1743 -32.8199
   -32.7281 -32.7049 -25.2848 -25.2822 -25.2802 -25.2767 -25.2738 -25.2144
   -25.2135 -10.3151 -10.1919  -8.7055  -8.4925  -3.7012  -3.2179  -3.0583
    -2.9250  -1.7305  -1.6469  -1.3172  -1.1654  -1.0629  -0.9201   0.2301
     0.5875   1.8528   2.0223   4.0140   4.4719   4.8013   4.8865   5.0367
     5.7693   6.5593   7.8071   8.1999   8.9222

          k = 0.0827 0.1671 0.0000 ( 13923 PWs)   bands (ev):

   -71.0334 -58.5512 -35.6643 -35.5610 -35.4828 -34.3914 -34.3824 -34.3682
   -34.3553 -34.3376 -34.3363 -34.2794 -34.2563 -34.2083 -34.1642 -32.8164
   -32.7312 -32.7240 -25.2848 -25.2828 -25.2800 -25.2765 -25.2739 -25.2149
   -25.2131 -10.1659 -10.0925  -8.3321  -8.2780  -3.8178  -3.5168  -3.1615
    -2.9528  -2.1802  -1.8155  -1.5305  -1.1455  -1.0575  -0.8486  -0.0233
     0.4054   2.0567   2.1968   3.9673   4.4821   4.5951   4.7902   5.2280
     6.1238   6.6073   7.4720   8.4165   8.5337

          k = 0.1034 0.1791 0.0000 ( 13935 PWs)   bands (ev):

   -71.0331 -58.5505 -35.6661 -35.5567 -35.4940 -34.3858 -34.3821 -34.3734
   -34.3522 -34.3404 -34.3368 -34.2792 -34.2569 -34.2076 -34.1599 -32.7976
   -32.7588 -32.7225 -25.2845 -25.2832 -25.2797 -25.2766 -25.2739 -25.2152
   -25.2129 -10.1143 -10.0494  -8.2006  -8.1847  -3.5956  -3.5801  -3.2340
    -2.7255  -2.5628  -2.1173  -1.6908  -1.2115  -1.0120  -0.8677  -0.1383
     0.3513   2.1667   2.3321   3.8563   4.3411   4.4442   4.6599   5.3584
     6.3969   6.6747   7.5316   8.1052   8.5447

     highest occupied, lowest unoccupied level (ev):     2.5972    3.5892

!    total energy              =   -1068.52708232 Ry
     estimated scf accuracy    <       0.00000006 Ry

     The total energy is the sum of the following terms:
     one-electron contribution =  -18176.57741619 Ry
     hartree contribution      =    9089.88148855 Ry
     xc contribution           =    -104.46480804 Ry
     ewald contribution        =    8122.63365336 Ry

     convergence has been achieved in   4 iterations

     Forces acting on atoms (cartesian axes, Ry/au):

     atom    1 type  1   force =     0.00000000    0.00000000   -0.00137067
     atom    2 type  2   force =     0.00000000    0.00000000    0.01896926
     atom    3 type  2   force =     0.00000000    0.00000000   -0.02654016
     atom    4 type  3   force =     0.00000000    0.00000000    0.00264696
     atom    5 type  4   force =     0.00000000    0.00000000    0.16054662
     atom    6 type  4   force =     0.00000000    0.00000000   -0.15425203

     Total force =     0.225038     Total SCF correction =     0.002464

     Writing all to output data dir ./calc.save/

     init_run     :      1.77s CPU      4.31s WALL (       1 calls)
     electrons    :    187.88s CPU     63.61s WALL (       1 calls)
     forces       :      4.21s CPU      1.17s WALL (       1 calls)

     Called by init_run:
     wfcinit      :      0.95s CPU      3.12s WALL (       1 calls)
     potinit      :      0.01s CPU      0.08s WALL (       1 calls)
     hinit0       :      0.78s CPU      1.08s WALL (       1 calls)

     Called by electrons:
     c_bands      :    186.57s CPU     62.41s WALL (       5 calls)
     sum_band     :      1.26s CPU      1.15s WALL (       5 calls)
     v_of_rho     :      0.03s CPU      0.03s WALL (       5 calls)
     mix_rho      :      0.00s CPU      0.00s WALL (       5 calls)

     Called by c_bands:
     init_us_2    :      3.55s CPU      0.64s WALL (     297 calls)
     init_us_2:cp :      3.55s CPU      0.64s WALL (     297 calls)
     cegterg      :    182.59s CPU     61.27s WALL (     135 calls)

     Called by *egterg:
     cdiaghg      :    107.09s CPU     36.35s WALL (     982 calls)
     h_psi        :     41.55s CPU     16.13s WALL (    1036 calls)
     g_psi        :      1.68s CPU      1.14s WALL (     901 calls)

     Called by h_psi:
     h_psi:calbec :      3.06s CPU      1.87s WALL (    1036 calls)
     vloc_psi     :     26.96s CPU     11.39s WALL (    1036 calls)
     add_vuspsi   :     10.36s CPU      2.40s WALL (    1036 calls)

     General routines
     calbec       :      4.13s CPU      2.16s WALL (    1144 calls)
     fft          :      0.08s CPU      0.08s WALL (      52 calls)
     ffts         :      0.00s CPU      0.00s WALL (       5 calls)
     fftw         :     25.93s CPU     11.69s WALL (   65325 calls)

     Parallel routines

     PWSCF        :   3m14.25s CPU   1m12.13s WALL


   This run was terminated on:  17:21:19  29Jun2023            

=------------------------------------------------------------------------------=
   JOB DONE.
=------------------------------------------------------------------------------=
