
     Program PWSCF v.7.1 starts on 29Jun2023 at 17:21:24 

     This program is part of the open-source Quantum ESPRESSO suite
     for quantum simulation of materials; please cite
         "P. Giannozzi et al., J. Phys.:Condens. Matter 21 395502 (2009);
         "P. Giannozzi et al., J. Phys.:Condens. Matter 29 465901 (2017);
         "P. Giannozzi et al., J. Chem. Phys. 152 154105 (2020);
          URL http://www.quantum-espresso.org", 
     in publications or presentations arising from this work. More details at
     http://www.quantum-espresso.org/quote

     Parallel version (MPI), running on    42 processors

     MPI processes distributed on     1 nodes
     565734 MiB available memory on the printing compute node when the environment starts

     Waiting for input...
     Reading input from standard input

     Current dimensions of program PWSCF are:
     Max number of different atomic species (ntypx) = 10
     Max number of k-points (npk) =  40000
     Max angular momentum in pseudopotentials (lmaxx) =  4
     Message from routine input:
     WARNING: "startingwfc" set to atomic+random may spoil restart
     Message from routine cell_base_init:
     DEPRECATED: use true lattice parameter, not A to a.u. conversion factor

     IMPORTANT: XC functional enforced from input :
     Exchange-correlation= PBE
                           (   1   4   3   4   0   0   0)
     Any further DFT definition will be discarded
     Please, verify this is what you really want

     Message from routine setup:
     using ibrav=0 with symmetry is DISCOURAGED, use correct ibrav instead

     R & G space division:  proc/nbgrp/npool/nimage =      42
     Subspace diagonalization in iterative solution of the eigenvalue problem:
     a serial algorithm will be used


     Parallelization info
     --------------------
     sticks:   dense  smooth     PW     G-vecs:    dense   smooth      PW
     Min          12      12      3                 2634     2634     437
     Max          13      13      4                 2673     2673     506
     Sum         511     511    163               111175   111175   20423

     Using Slab Decomposition



     bravais-lattice index     =            0
     lattice parameter (alat)  =       1.8897  a.u.
     unit-cell volume          =    2325.7876 (a.u.)^3
     number of atoms/cell      =            6
     number of atomic types    =            4
     number of electrons       =        86.00
     number of Kohn-Sham states=           53
     kinetic-energy cutoff     =      50.0000  Ry
     charge density cutoff     =     199.9999  Ry
     Exchange-correlation= PBE
                           (   1   4   3   4   0   0   0)

     celldm(1)=   1.889726  celldm(2)=   0.000000  celldm(3)=   0.000000
     celldm(4)=   0.000000  celldm(5)=   0.000000  celldm(6)=   0.000000

     crystal axes: (cart. coord. in units of alat)
               a(1) = (   3.224300   0.000000   0.000000 )  
               a(2) = (  -1.612150   2.792326   0.000000 )  
               a(3) = (   0.000000   0.000000  38.280000 )  

     reciprocal axes: (cart. coord. in units 2 pi/alat)
               b(1) = (  0.310145  0.179062 -0.000000 )  
               b(2) = (  0.000000  0.358124  0.000000 )  
               b(3) = (  0.000000 -0.000000  0.026123 )  


     PseudoPot. # 1 for Mo read from file:
     /ccs/home/dpalmer3/qe-7.1/pseudo/Mo.UPF
     MD5 check sum: e75ed155aa411dd1617a1e98b4cfb1d3
     Pseudo is Norm-conserving, Zval = 14.0
     Generated using ONCVPSP code by D. R. Hamann
     Using radial grid of  602 points,  6 beta functions with: 
                l(1) =   0
                l(2) =   0
                l(3) =   1
                l(4) =   1
                l(5) =   2
                l(6) =   2

     PseudoPot. # 2 for Se read from file:
     /ccs/home/dpalmer3/qe-7.1/pseudo/Se.UPF
     MD5 check sum: e78e48a4f5d8ce1f8dc76ec1271f249c
     Pseudo is Norm-conserving, Zval =  6.0
     Generated using ONCVPSP code by D. R. Hamann
     Using radial grid of  602 points,  6 beta functions with: 
                l(1) =   0
                l(2) =   0
                l(3) =   1
                l(4) =   1
                l(5) =   2
                l(6) =   2

     PseudoPot. # 3 for W  read from file:
     /ccs/home/dpalmer3/qe-7.1/pseudo/W.UPF
     MD5 check sum: b6096f31a98cdd82a46cfdcd1f902baf
     Pseudo is Norm-conserving, Zval = 28.0
     Generated using ONCVPSP code by D. R. Hamann
     Using radial grid of  602 points,  8 beta functions with: 
                l(1) =   0
                l(2) =   0
                l(3) =   1
                l(4) =   1
                l(5) =   2
                l(6) =   2
                l(7) =   3
                l(8) =   3

     PseudoPot. # 4 for Te read from file:
     /ccs/home/dpalmer3/qe-7.1/pseudo/Te.UPF
     MD5 check sum: dd4de4dac1e38587f63aaf3700bb29d3
     Pseudo is Norm-conserving, Zval = 16.0
     Generated using ONCVPSP code by D. R. Hamann
     Using radial grid of  602 points,  6 beta functions with: 
                l(1) =   0
                l(2) =   0
                l(3) =   1
                l(4) =   1
                l(5) =   2
                l(6) =   2

     atomic species   valence    mass     pseudopotential
        Mo1           14.00    95.95000     Mo( 1.00)
        Se1            6.00    78.97100     Se( 1.00)
        W1            28.00   183.84000     W ( 1.00)
        Te1           16.00   127.60000     Te( 1.00)

      6 Sym. Ops. (no inversion) found


                                    s                        frac. trans.

      isym =  1     identity                                     

 cryst.   s( 1) = (     1          0          0      )
                  (     0          1          0      )
                  (     0          0          1      )

 cart.    s( 1) = (  1.0000000  0.0000000  0.0000000 )
                  (  0.0000000  1.0000000  0.0000000 )
                  (  0.0000000  0.0000000  1.0000000 )


      isym =  2     120 deg rotation - cryst. axis [0,0,1]       

 cryst.   s( 2) = (     0          1          0      )
                  (    -1         -1          0      )
                  (     0          0          1      )

 cart.    s( 2) = ( -0.5000000 -0.8660254  0.0000000 )
                  (  0.8660254 -0.5000000  0.0000000 )
                  (  0.0000000  0.0000000  1.0000000 )


      isym =  3     120 deg rotation - cryst. axis [0,0,-1]      

 cryst.   s( 3) = (    -1         -1          0      )
                  (     1          0          0      )
                  (     0          0          1      )

 cart.    s( 3) = ( -0.5000000  0.8660254  0.0000000 )
                  ( -0.8660254 -0.5000000  0.0000000 )
                  (  0.0000000  0.0000000  1.0000000 )


      isym =  4     inv. 180 deg rotation - cart. axis [1,0,0]   

 cryst.   s( 4) = (    -1          0          0      )
                  (     1          1          0      )
                  (     0          0          1      )

 cart.    s( 4) = ( -1.0000000  0.0000000  0.0000000 )
                  (  0.0000000  1.0000000  0.0000000 )
                  (  0.0000000  0.0000000  1.0000000 )


      isym =  5     inv. 180 deg rotation - cryst. axis [0,1,0]  

 cryst.   s( 5) = (     1          1          0      )
                  (     0         -1          0      )
                  (     0          0          1      )

 cart.    s( 5) = (  0.5000000  0.8660254  0.0000000 )
                  (  0.8660254 -0.5000000  0.0000000 )
                  (  0.0000000  0.0000000  1.0000000 )


      isym =  6     inv. 180 deg rotation - cryst. axis [1,1,0]  

 cryst.   s( 6) = (     0         -1          0      )
                  (    -1          0          0      )
                  (     0          0          1      )

 cart.    s( 6) = (  0.5000000 -0.8660254  0.0000000 )
                  ( -0.8660254 -0.5000000  0.0000000 )
                  (  0.0000000  0.0000000  1.0000000 )


   Cartesian axes

     site n.     atom                  positions (alat units)
         1           Mo1 tau(   1) = (   0.0000000   0.0000000  11.6650000  )
         2           Se1 tau(   2) = (   1.6121500   0.9307752  13.3300000  )
         3           Se1 tau(   3) = (   1.6121500   0.9307752  10.0000000  )
         4           W1  tau(   4) = (   1.6121500   0.9307752  18.2800000  )
         5           Te1 tau(   5) = (  -0.0000000   1.8615505  20.0300000  )
         6           Te1 tau(   6) = (  -0.0000000   1.8615505  16.5300000  )

   Crystallographic axes

     site n.     atom                  positions (cryst. coord.)
         1           Mo1 tau(   1) = (  0.0000000  0.0000000  0.3047283  )
         2           Se1 tau(   2) = (  0.6666667  0.3333333  0.3482236  )
         3           Se1 tau(   3) = (  0.6666667  0.3333333  0.2612330  )
         4           W1  tau(   4) = (  0.6666667  0.3333333  0.4775340  )
         5           Te1 tau(   5) = (  0.3333333  0.6666667  0.5232497  )
         6           Te1 tau(   6) = (  0.3333333  0.6666667  0.4318182  )

     number of k points=   225
                       cart. coord. in units 2pi/alat
        k(    1) = (  -0.1447343  -0.2506871   0.0000000), wk =   0.0088889
        k(    2) = (  -0.1447343  -0.2268121   0.0000000), wk =   0.0088889
        k(    3) = (  -0.1447343  -0.2029372   0.0000000), wk =   0.0088889
        k(    4) = (  -0.1447343  -0.1790622   0.0000000), wk =   0.0088889
        k(    5) = (  -0.1447343  -0.1551872   0.0000000), wk =   0.0088889
        k(    6) = (  -0.1447343  -0.1313123   0.0000000), wk =   0.0088889
        k(    7) = (  -0.1447343  -0.1074373   0.0000000), wk =   0.0088889
        k(    8) = (  -0.1447343  -0.0835624   0.0000000), wk =   0.0088889
        k(    9) = (  -0.1447343  -0.0596874   0.0000000), wk =   0.0088889
        k(   10) = (  -0.1447343  -0.0358124   0.0000000), wk =   0.0088889
        k(   11) = (  -0.1447343  -0.0119375   0.0000000), wk =   0.0088889
        k(   12) = (  -0.1447343   0.0119375   0.0000000), wk =   0.0088889
        k(   13) = (  -0.1447343   0.0358124   0.0000000), wk =   0.0088889
        k(   14) = (  -0.1447343   0.0596874   0.0000000), wk =   0.0088889
        k(   15) = (  -0.1447343   0.0835624   0.0000000), wk =   0.0088889
        k(   16) = (  -0.1240579  -0.2387496   0.0000000), wk =   0.0088889
        k(   17) = (  -0.1240579  -0.2148746   0.0000000), wk =   0.0088889
        k(   18) = (  -0.1240579  -0.1909997   0.0000000), wk =   0.0088889
        k(   19) = (  -0.1240579  -0.1671247   0.0000000), wk =   0.0088889
        k(   20) = (  -0.1240579  -0.1432498   0.0000000), wk =   0.0088889
        k(   21) = (  -0.1240579  -0.1193748   0.0000000), wk =   0.0088889
        k(   22) = (  -0.1240579  -0.0954998   0.0000000), wk =   0.0088889
        k(   23) = (  -0.1240579  -0.0716249   0.0000000), wk =   0.0088889
        k(   24) = (  -0.1240579  -0.0477499   0.0000000), wk =   0.0088889
        k(   25) = (  -0.1240579  -0.0238750   0.0000000), wk =   0.0088889
        k(   26) = (  -0.1240579  -0.0000000   0.0000000), wk =   0.0088889
        k(   27) = (  -0.1240579   0.0238750   0.0000000), wk =   0.0088889
        k(   28) = (  -0.1240579   0.0477499   0.0000000), wk =   0.0088889
        k(   29) = (  -0.1240579   0.0716249   0.0000000), wk =   0.0088889
        k(   30) = (  -0.1240579   0.0954998   0.0000000), wk =   0.0088889
        k(   31) = (  -0.1033816  -0.2268121   0.0000000), wk =   0.0088889
        k(   32) = (  -0.1033816  -0.2029372   0.0000000), wk =   0.0088889
        k(   33) = (  -0.1033816  -0.1790622   0.0000000), wk =   0.0088889
        k(   34) = (  -0.1033816  -0.1551872   0.0000000), wk =   0.0088889
        k(   35) = (  -0.1033816  -0.1313123   0.0000000), wk =   0.0088889
        k(   36) = (  -0.1033816  -0.1074373   0.0000000), wk =   0.0088889
        k(   37) = (  -0.1033816  -0.0835624   0.0000000), wk =   0.0088889
        k(   38) = (  -0.1033816  -0.0596874   0.0000000), wk =   0.0088889
        k(   39) = (  -0.1033816  -0.0358124   0.0000000), wk =   0.0088889
        k(   40) = (  -0.1033816  -0.0119375   0.0000000), wk =   0.0088889
        k(   41) = (  -0.1033816   0.0119375   0.0000000), wk =   0.0088889
        k(   42) = (  -0.1033816   0.0358124   0.0000000), wk =   0.0088889
        k(   43) = (  -0.1033816   0.0596874   0.0000000), wk =   0.0088889
        k(   44) = (  -0.1033816   0.0835624   0.0000000), wk =   0.0088889
        k(   45) = (  -0.1033816   0.1074373   0.0000000), wk =   0.0088889
        k(   46) = (  -0.0827053  -0.2148746   0.0000000), wk =   0.0088889
        k(   47) = (  -0.0827053  -0.1909997   0.0000000), wk =   0.0088889
        k(   48) = (  -0.0827053  -0.1671247   0.0000000), wk =   0.0088889
        k(   49) = (  -0.0827053  -0.1432498   0.0000000), wk =   0.0088889
        k(   50) = (  -0.0827053  -0.1193748   0.0000000), wk =   0.0088889
        k(   51) = (  -0.0827053  -0.0954998   0.0000000), wk =   0.0088889
        k(   52) = (  -0.0827053  -0.0716249   0.0000000), wk =   0.0088889
        k(   53) = (  -0.0827053  -0.0477499   0.0000000), wk =   0.0088889
        k(   54) = (  -0.0827053  -0.0238750   0.0000000), wk =   0.0088889
        k(   55) = (  -0.0827053  -0.0000000   0.0000000), wk =   0.0088889
        k(   56) = (  -0.0827053   0.0238750   0.0000000), wk =   0.0088889
        k(   57) = (  -0.0827053   0.0477499   0.0000000), wk =   0.0088889
        k(   58) = (  -0.0827053   0.0716249   0.0000000), wk =   0.0088889
        k(   59) = (  -0.0827053   0.0954998   0.0000000), wk =   0.0088889
        k(   60) = (  -0.0827053   0.1193748   0.0000000), wk =   0.0088889
        k(   61) = (  -0.0620290  -0.2029372   0.0000000), wk =   0.0088889
        k(   62) = (  -0.0620290  -0.1790622   0.0000000), wk =   0.0088889
        k(   63) = (  -0.0620290  -0.1551872   0.0000000), wk =   0.0088889
        k(   64) = (  -0.0620290  -0.1313123   0.0000000), wk =   0.0088889
        k(   65) = (  -0.0620290  -0.1074373   0.0000000), wk =   0.0088889
        k(   66) = (  -0.0620290  -0.0835624   0.0000000), wk =   0.0088889
        k(   67) = (  -0.0620290  -0.0596874   0.0000000), wk =   0.0088889
        k(   68) = (  -0.0620290  -0.0358124   0.0000000), wk =   0.0088889
        k(   69) = (  -0.0620290  -0.0119375   0.0000000), wk =   0.0088889
        k(   70) = (  -0.0620290   0.0119375   0.0000000), wk =   0.0088889
        k(   71) = (  -0.0620290   0.0358124   0.0000000), wk =   0.0088889
        k(   72) = (  -0.0620290   0.0596874   0.0000000), wk =   0.0088889
        k(   73) = (  -0.0620290   0.0835624   0.0000000), wk =   0.0088889
        k(   74) = (  -0.0620290   0.1074373   0.0000000), wk =   0.0088889
        k(   75) = (  -0.0620290   0.1313123   0.0000000), wk =   0.0088889
        k(   76) = (  -0.0413526  -0.1909997   0.0000000), wk =   0.0088889
        k(   77) = (  -0.0413526  -0.1671247   0.0000000), wk =   0.0088889
        k(   78) = (  -0.0413526  -0.1432498   0.0000000), wk =   0.0088889
        k(   79) = (  -0.0413526  -0.1193748   0.0000000), wk =   0.0088889
        k(   80) = (  -0.0413526  -0.0954998   0.0000000), wk =   0.0088889
        k(   81) = (  -0.0413526  -0.0716249   0.0000000), wk =   0.0088889
        k(   82) = (  -0.0413526  -0.0477499   0.0000000), wk =   0.0088889
        k(   83) = (  -0.0413526  -0.0238750   0.0000000), wk =   0.0088889
        k(   84) = (  -0.0413526  -0.0000000   0.0000000), wk =   0.0088889
        k(   85) = (  -0.0413526   0.0238750   0.0000000), wk =   0.0088889
        k(   86) = (  -0.0413526   0.0477499   0.0000000), wk =   0.0088889
        k(   87) = (  -0.0413526   0.0716249   0.0000000), wk =   0.0088889
        k(   88) = (  -0.0413526   0.0954998   0.0000000), wk =   0.0088889
        k(   89) = (  -0.0413526   0.1193748   0.0000000), wk =   0.0088889
        k(   90) = (  -0.0413526   0.1432498   0.0000000), wk =   0.0088889
        k(   91) = (  -0.0206763  -0.1790622   0.0000000), wk =   0.0088889
        k(   92) = (  -0.0206763  -0.1551872   0.0000000), wk =   0.0088889
        k(   93) = (  -0.0206763  -0.1313123   0.0000000), wk =   0.0088889
        k(   94) = (  -0.0206763  -0.1074373   0.0000000), wk =   0.0088889
        k(   95) = (  -0.0206763  -0.0835624   0.0000000), wk =   0.0088889
        k(   96) = (  -0.0206763  -0.0596874   0.0000000), wk =   0.0088889
        k(   97) = (  -0.0206763  -0.0358124   0.0000000), wk =   0.0088889
        k(   98) = (  -0.0206763  -0.0119375   0.0000000), wk =   0.0088889
        k(   99) = (  -0.0206763   0.0119375   0.0000000), wk =   0.0088889
        k(  100) = (  -0.0206763   0.0358124   0.0000000), wk =   0.0088889
        k(  101) = (  -0.0206763   0.0596874   0.0000000), wk =   0.0088889
        k(  102) = (  -0.0206763   0.0835624   0.0000000), wk =   0.0088889
        k(  103) = (  -0.0206763   0.1074373   0.0000000), wk =   0.0088889
        k(  104) = (  -0.0206763   0.1313123   0.0000000), wk =   0.0088889
        k(  105) = (  -0.0206763   0.1551872   0.0000000), wk =   0.0088889
        k(  106) = (   0.0000000  -0.1671247   0.0000000), wk =   0.0088889
        k(  107) = (   0.0000000  -0.1432498   0.0000000), wk =   0.0088889
        k(  108) = (   0.0000000  -0.1193748   0.0000000), wk =   0.0088889
        k(  109) = (   0.0000000  -0.0954998   0.0000000), wk =   0.0088889
        k(  110) = (   0.0000000  -0.0716249   0.0000000), wk =   0.0088889
        k(  111) = (   0.0000000  -0.0477499   0.0000000), wk =   0.0088889
        k(  112) = (   0.0000000  -0.0238750   0.0000000), wk =   0.0088889
        k(  113) = (   0.0000000   0.0000000   0.0000000), wk =   0.0088889
        k(  114) = (   0.0000000   0.0238750   0.0000000), wk =   0.0088889
        k(  115) = (   0.0000000   0.0477499   0.0000000), wk =   0.0088889
        k(  116) = (   0.0000000   0.0716249   0.0000000), wk =   0.0088889
        k(  117) = (   0.0000000   0.0954998   0.0000000), wk =   0.0088889
        k(  118) = (   0.0000000   0.1193748   0.0000000), wk =   0.0088889
        k(  119) = (   0.0000000   0.1432498   0.0000000), wk =   0.0088889
        k(  120) = (   0.0000000   0.1671247   0.0000000), wk =   0.0088889
        k(  121) = (   0.0206763  -0.1551872   0.0000000), wk =   0.0088889
        k(  122) = (   0.0206763  -0.1313123   0.0000000), wk =   0.0088889
        k(  123) = (   0.0206763  -0.1074373   0.0000000), wk =   0.0088889
        k(  124) = (   0.0206763  -0.0835624   0.0000000), wk =   0.0088889
        k(  125) = (   0.0206763  -0.0596874   0.0000000), wk =   0.0088889
        k(  126) = (   0.0206763  -0.0358124   0.0000000), wk =   0.0088889
        k(  127) = (   0.0206763  -0.0119375   0.0000000), wk =   0.0088889
        k(  128) = (   0.0206763   0.0119375   0.0000000), wk =   0.0088889
        k(  129) = (   0.0206763   0.0358124   0.0000000), wk =   0.0088889
        k(  130) = (   0.0206763   0.0596874   0.0000000), wk =   0.0088889
        k(  131) = (   0.0206763   0.0835624   0.0000000), wk =   0.0088889
        k(  132) = (   0.0206763   0.1074373   0.0000000), wk =   0.0088889
        k(  133) = (   0.0206763   0.1313123   0.0000000), wk =   0.0088889
        k(  134) = (   0.0206763   0.1551872   0.0000000), wk =   0.0088889
        k(  135) = (   0.0206763   0.1790622   0.0000000), wk =   0.0088889
        k(  136) = (   0.0413526  -0.1432498   0.0000000), wk =   0.0088889
        k(  137) = (   0.0413526  -0.1193748   0.0000000), wk =   0.0088889
        k(  138) = (   0.0413526  -0.0954998   0.0000000), wk =   0.0088889
        k(  139) = (   0.0413526  -0.0716249   0.0000000), wk =   0.0088889
        k(  140) = (   0.0413526  -0.0477499   0.0000000), wk =   0.0088889
        k(  141) = (   0.0413526  -0.0238750   0.0000000), wk =   0.0088889
        k(  142) = (   0.0413526   0.0000000   0.0000000), wk =   0.0088889
        k(  143) = (   0.0413526   0.0238750   0.0000000), wk =   0.0088889
        k(  144) = (   0.0413526   0.0477499   0.0000000), wk =   0.0088889
        k(  145) = (   0.0413526   0.0716249   0.0000000), wk =   0.0088889
        k(  146) = (   0.0413526   0.0954998   0.0000000), wk =   0.0088889
        k(  147) = (   0.0413526   0.1193748   0.0000000), wk =   0.0088889
        k(  148) = (   0.0413526   0.1432498   0.0000000), wk =   0.0088889
        k(  149) = (   0.0413526   0.1671247   0.0000000), wk =   0.0088889
        k(  150) = (   0.0413526   0.1909997   0.0000000), wk =   0.0088889
        k(  151) = (   0.0620290  -0.1313123   0.0000000), wk =   0.0088889
        k(  152) = (   0.0620290  -0.1074373   0.0000000), wk =   0.0088889
        k(  153) = (   0.0620290  -0.0835624   0.0000000), wk =   0.0088889
        k(  154) = (   0.0620290  -0.0596874   0.0000000), wk =   0.0088889
        k(  155) = (   0.0620290  -0.0358124   0.0000000), wk =   0.0088889
        k(  156) = (   0.0620290  -0.0119375   0.0000000), wk =   0.0088889
        k(  157) = (   0.0620290   0.0119375   0.0000000), wk =   0.0088889
        k(  158) = (   0.0620290   0.0358124   0.0000000), wk =   0.0088889
        k(  159) = (   0.0620290   0.0596874   0.0000000), wk =   0.0088889
        k(  160) = (   0.0620290   0.0835624   0.0000000), wk =   0.0088889
        k(  161) = (   0.0620290   0.1074373   0.0000000), wk =   0.0088889
        k(  162) = (   0.0620290   0.1313123   0.0000000), wk =   0.0088889
        k(  163) = (   0.0620290   0.1551872   0.0000000), wk =   0.0088889
        k(  164) = (   0.0620290   0.1790622   0.0000000), wk =   0.0088889
        k(  165) = (   0.0620290   0.2029372   0.0000000), wk =   0.0088889
        k(  166) = (   0.0827053  -0.1193748   0.0000000), wk =   0.0088889
        k(  167) = (   0.0827053  -0.0954998   0.0000000), wk =   0.0088889
        k(  168) = (   0.0827053  -0.0716249   0.0000000), wk =   0.0088889
        k(  169) = (   0.0827053  -0.0477499   0.0000000), wk =   0.0088889
        k(  170) = (   0.0827053  -0.0238750   0.0000000), wk =   0.0088889
        k(  171) = (   0.0827053  -0.0000000   0.0000000), wk =   0.0088889
        k(  172) = (   0.0827053   0.0238750   0.0000000), wk =   0.0088889
        k(  173) = (   0.0827053   0.0477499   0.0000000), wk =   0.0088889
        k(  174) = (   0.0827053   0.0716249   0.0000000), wk =   0.0088889
        k(  175) = (   0.0827053   0.0954998   0.0000000), wk =   0.0088889
        k(  176) = (   0.0827053   0.1193748   0.0000000), wk =   0.0088889
        k(  177) = (   0.0827053   0.1432498   0.0000000), wk =   0.0088889
        k(  178) = (   0.0827053   0.1671247   0.0000000), wk =   0.0088889
        k(  179) = (   0.0827053   0.1909997   0.0000000), wk =   0.0088889
        k(  180) = (   0.0827053   0.2148746   0.0000000), wk =   0.0088889
        k(  181) = (   0.1033816  -0.1074373   0.0000000), wk =   0.0088889
        k(  182) = (   0.1033816  -0.0835624   0.0000000), wk =   0.0088889
        k(  183) = (   0.1033816  -0.0596874   0.0000000), wk =   0.0088889
        k(  184) = (   0.1033816  -0.0358124   0.0000000), wk =   0.0088889
        k(  185) = (   0.1033816  -0.0119375   0.0000000), wk =   0.0088889
        k(  186) = (   0.1033816   0.0119375   0.0000000), wk =   0.0088889
        k(  187) = (   0.1033816   0.0358124   0.0000000), wk =   0.0088889
        k(  188) = (   0.1033816   0.0596874   0.0000000), wk =   0.0088889
        k(  189) = (   0.1033816   0.0835624   0.0000000), wk =   0.0088889
        k(  190) = (   0.1033816   0.1074373   0.0000000), wk =   0.0088889
        k(  191) = (   0.1033816   0.1313123   0.0000000), wk =   0.0088889
        k(  192) = (   0.1033816   0.1551872   0.0000000), wk =   0.0088889
        k(  193) = (   0.1033816   0.1790622   0.0000000), wk =   0.0088889
        k(  194) = (   0.1033816   0.2029372   0.0000000), wk =   0.0088889
        k(  195) = (   0.1033816   0.2268121   0.0000000), wk =   0.0088889
        k(  196) = (   0.1240579  -0.0954998   0.0000000), wk =   0.0088889
        k(  197) = (   0.1240579  -0.0716249   0.0000000), wk =   0.0088889
        k(  198) = (   0.1240579  -0.0477499   0.0000000), wk =   0.0088889
        k(  199) = (   0.1240579  -0.0238750   0.0000000), wk =   0.0088889
        k(  200) = (   0.1240579   0.0000000   0.0000000), wk =   0.0088889
        k(  201) = (   0.1240579   0.0238750   0.0000000), wk =   0.0088889
        k(  202) = (   0.1240579   0.0477499   0.0000000), wk =   0.0088889
        k(  203) = (   0.1240579   0.0716249   0.0000000), wk =   0.0088889
        k(  204) = (   0.1240579   0.0954998   0.0000000), wk =   0.0088889
        k(  205) = (   0.1240579   0.1193748   0.0000000), wk =   0.0088889
        k(  206) = (   0.1240579   0.1432498   0.0000000), wk =   0.0088889
        k(  207) = (   0.1240579   0.1671247   0.0000000), wk =   0.0088889
        k(  208) = (   0.1240579   0.1909997   0.0000000), wk =   0.0088889
        k(  209) = (   0.1240579   0.2148746   0.0000000), wk =   0.0088889
        k(  210) = (   0.1240579   0.2387496   0.0000000), wk =   0.0088889
        k(  211) = (   0.1447343  -0.0835624   0.0000000), wk =   0.0088889
        k(  212) = (   0.1447343  -0.0596874   0.0000000), wk =   0.0088889
        k(  213) = (   0.1447343  -0.0358124   0.0000000), wk =   0.0088889
        k(  214) = (   0.1447343  -0.0119375   0.0000000), wk =   0.0088889
        k(  215) = (   0.1447343   0.0119375   0.0000000), wk =   0.0088889
        k(  216) = (   0.1447343   0.0358124   0.0000000), wk =   0.0088889
        k(  217) = (   0.1447343   0.0596874   0.0000000), wk =   0.0088889
        k(  218) = (   0.1447343   0.0835624   0.0000000), wk =   0.0088889
        k(  219) = (   0.1447343   0.1074373   0.0000000), wk =   0.0088889
        k(  220) = (   0.1447343   0.1313123   0.0000000), wk =   0.0088889
        k(  221) = (   0.1447343   0.1551872   0.0000000), wk =   0.0088889
        k(  222) = (   0.1447343   0.1790622   0.0000000), wk =   0.0088889
        k(  223) = (   0.1447343   0.2029372   0.0000000), wk =   0.0088889
        k(  224) = (   0.1447343   0.2268121   0.0000000), wk =   0.0088889
        k(  225) = (   0.1447343   0.2506871   0.0000000), wk =   0.0088889

                       cryst. coord.
        k(    1) = (  -0.4666667  -0.4666667   0.0000000), wk =   0.0088889
        k(    2) = (  -0.4666667  -0.4000000   0.0000000), wk =   0.0088889
        k(    3) = (  -0.4666667  -0.3333333   0.0000000), wk =   0.0088889
        k(    4) = (  -0.4666667  -0.2666667   0.0000000), wk =   0.0088889
        k(    5) = (  -0.4666667  -0.2000000   0.0000000), wk =   0.0088889
        k(    6) = (  -0.4666667  -0.1333333   0.0000000), wk =   0.0088889
        k(    7) = (  -0.4666667  -0.0666667   0.0000000), wk =   0.0088889
        k(    8) = (  -0.4666667   0.0000000   0.0000000), wk =   0.0088889
        k(    9) = (  -0.4666667   0.0666667   0.0000000), wk =   0.0088889
        k(   10) = (  -0.4666667   0.1333333   0.0000000), wk =   0.0088889
        k(   11) = (  -0.4666667   0.2000000   0.0000000), wk =   0.0088889
        k(   12) = (  -0.4666667   0.2666667   0.0000000), wk =   0.0088889
        k(   13) = (  -0.4666667   0.3333333   0.0000000), wk =   0.0088889
        k(   14) = (  -0.4666667   0.4000000   0.0000000), wk =   0.0088889
        k(   15) = (  -0.4666667   0.4666667   0.0000000), wk =   0.0088889
        k(   16) = (  -0.4000000  -0.4666667   0.0000000), wk =   0.0088889
        k(   17) = (  -0.4000000  -0.4000000   0.0000000), wk =   0.0088889
        k(   18) = (  -0.4000000  -0.3333333   0.0000000), wk =   0.0088889
        k(   19) = (  -0.4000000  -0.2666667   0.0000000), wk =   0.0088889
        k(   20) = (  -0.4000000  -0.2000000   0.0000000), wk =   0.0088889
        k(   21) = (  -0.4000000  -0.1333333   0.0000000), wk =   0.0088889
        k(   22) = (  -0.4000000  -0.0666667   0.0000000), wk =   0.0088889
        k(   23) = (  -0.4000000  -0.0000000   0.0000000), wk =   0.0088889
        k(   24) = (  -0.4000000   0.0666667   0.0000000), wk =   0.0088889
        k(   25) = (  -0.4000000   0.1333333   0.0000000), wk =   0.0088889
        k(   26) = (  -0.4000000   0.2000000   0.0000000), wk =   0.0088889
        k(   27) = (  -0.4000000   0.2666667   0.0000000), wk =   0.0088889
        k(   28) = (  -0.4000000   0.3333333   0.0000000), wk =   0.0088889
        k(   29) = (  -0.4000000   0.4000000   0.0000000), wk =   0.0088889
        k(   30) = (  -0.4000000   0.4666667   0.0000000), wk =   0.0088889
        k(   31) = (  -0.3333333  -0.4666667   0.0000000), wk =   0.0088889
        k(   32) = (  -0.3333333  -0.4000000   0.0000000), wk =   0.0088889
        k(   33) = (  -0.3333333  -0.3333333   0.0000000), wk =   0.0088889
        k(   34) = (  -0.3333333  -0.2666667   0.0000000), wk =   0.0088889
        k(   35) = (  -0.3333333  -0.2000000   0.0000000), wk =   0.0088889
        k(   36) = (  -0.3333333  -0.1333333   0.0000000), wk =   0.0088889
        k(   37) = (  -0.3333333  -0.0666667   0.0000000), wk =   0.0088889
        k(   38) = (  -0.3333333  -0.0000000   0.0000000), wk =   0.0088889
        k(   39) = (  -0.3333333   0.0666667   0.0000000), wk =   0.0088889
        k(   40) = (  -0.3333333   0.1333333   0.0000000), wk =   0.0088889
        k(   41) = (  -0.3333333   0.2000000   0.0000000), wk =   0.0088889
        k(   42) = (  -0.3333333   0.2666667   0.0000000), wk =   0.0088889
        k(   43) = (  -0.3333333   0.3333333   0.0000000), wk =   0.0088889
        k(   44) = (  -0.3333333   0.4000000   0.0000000), wk =   0.0088889
        k(   45) = (  -0.3333333   0.4666667   0.0000000), wk =   0.0088889
        k(   46) = (  -0.2666667  -0.4666667   0.0000000), wk =   0.0088889
        k(   47) = (  -0.2666667  -0.4000000   0.0000000), wk =   0.0088889
        k(   48) = (  -0.2666667  -0.3333333   0.0000000), wk =   0.0088889
        k(   49) = (  -0.2666667  -0.2666667   0.0000000), wk =   0.0088889
        k(   50) = (  -0.2666667  -0.2000000   0.0000000), wk =   0.0088889
        k(   51) = (  -0.2666667  -0.1333333   0.0000000), wk =   0.0088889
        k(   52) = (  -0.2666667  -0.0666667   0.0000000), wk =   0.0088889
        k(   53) = (  -0.2666667   0.0000000   0.0000000), wk =   0.0088889
        k(   54) = (  -0.2666667   0.0666667   0.0000000), wk =   0.0088889
        k(   55) = (  -0.2666667   0.1333333   0.0000000), wk =   0.0088889
        k(   56) = (  -0.2666667   0.2000000   0.0000000), wk =   0.0088889
        k(   57) = (  -0.2666667   0.2666667   0.0000000), wk =   0.0088889
        k(   58) = (  -0.2666667   0.3333333   0.0000000), wk =   0.0088889
        k(   59) = (  -0.2666667   0.4000000   0.0000000), wk =   0.0088889
        k(   60) = (  -0.2666667   0.4666667   0.0000000), wk =   0.0088889
        k(   61) = (  -0.2000000  -0.4666667   0.0000000), wk =   0.0088889
        k(   62) = (  -0.2000000  -0.4000000   0.0000000), wk =   0.0088889
        k(   63) = (  -0.2000000  -0.3333333   0.0000000), wk =   0.0088889
        k(   64) = (  -0.2000000  -0.2666667   0.0000000), wk =   0.0088889
        k(   65) = (  -0.2000000  -0.2000000   0.0000000), wk =   0.0088889
        k(   66) = (  -0.2000000  -0.1333333   0.0000000), wk =   0.0088889
        k(   67) = (  -0.2000000  -0.0666667   0.0000000), wk =   0.0088889
        k(   68) = (  -0.2000000  -0.0000000   0.0000000), wk =   0.0088889
        k(   69) = (  -0.2000000   0.0666667   0.0000000), wk =   0.0088889
        k(   70) = (  -0.2000000   0.1333333   0.0000000), wk =   0.0088889
        k(   71) = (  -0.2000000   0.2000000   0.0000000), wk =   0.0088889
        k(   72) = (  -0.2000000   0.2666667   0.0000000), wk =   0.0088889
        k(   73) = (  -0.2000000   0.3333333   0.0000000), wk =   0.0088889
        k(   74) = (  -0.2000000   0.4000000   0.0000000), wk =   0.0088889
        k(   75) = (  -0.2000000   0.4666667   0.0000000), wk =   0.0088889
        k(   76) = (  -0.1333333  -0.4666667   0.0000000), wk =   0.0088889
        k(   77) = (  -0.1333333  -0.4000000   0.0000000), wk =   0.0088889
        k(   78) = (  -0.1333333  -0.3333333   0.0000000), wk =   0.0088889
        k(   79) = (  -0.1333333  -0.2666667   0.0000000), wk =   0.0088889
        k(   80) = (  -0.1333333  -0.2000000   0.0000000), wk =   0.0088889
        k(   81) = (  -0.1333333  -0.1333333   0.0000000), wk =   0.0088889
        k(   82) = (  -0.1333333  -0.0666667   0.0000000), wk =   0.0088889
        k(   83) = (  -0.1333333   0.0000000   0.0000000), wk =   0.0088889
        k(   84) = (  -0.1333333   0.0666667   0.0000000), wk =   0.0088889
        k(   85) = (  -0.1333333   0.1333333   0.0000000), wk =   0.0088889
        k(   86) = (  -0.1333333   0.2000000   0.0000000), wk =   0.0088889
        k(   87) = (  -0.1333333   0.2666667   0.0000000), wk =   0.0088889
        k(   88) = (  -0.1333333   0.3333333   0.0000000), wk =   0.0088889
        k(   89) = (  -0.1333333   0.4000000   0.0000000), wk =   0.0088889
        k(   90) = (  -0.1333333   0.4666667   0.0000000), wk =   0.0088889
        k(   91) = (  -0.0666667  -0.4666667   0.0000000), wk =   0.0088889
        k(   92) = (  -0.0666667  -0.4000000   0.0000000), wk =   0.0088889
        k(   93) = (  -0.0666667  -0.3333333   0.0000000), wk =   0.0088889
        k(   94) = (  -0.0666667  -0.2666667   0.0000000), wk =   0.0088889
        k(   95) = (  -0.0666667  -0.2000000   0.0000000), wk =   0.0088889
        k(   96) = (  -0.0666667  -0.1333333   0.0000000), wk =   0.0088889
        k(   97) = (  -0.0666667  -0.0666667   0.0000000), wk =   0.0088889
        k(   98) = (  -0.0666667  -0.0000000   0.0000000), wk =   0.0088889
        k(   99) = (  -0.0666667   0.0666667   0.0000000), wk =   0.0088889
        k(  100) = (  -0.0666667   0.1333333   0.0000000), wk =   0.0088889
        k(  101) = (  -0.0666667   0.2000000   0.0000000), wk =   0.0088889
        k(  102) = (  -0.0666667   0.2666667   0.0000000), wk =   0.0088889
        k(  103) = (  -0.0666667   0.3333333   0.0000000), wk =   0.0088889
        k(  104) = (  -0.0666667   0.4000000   0.0000000), wk =   0.0088889
        k(  105) = (  -0.0666667   0.4666667   0.0000000), wk =   0.0088889
        k(  106) = (   0.0000000  -0.4666667   0.0000000), wk =   0.0088889
        k(  107) = (   0.0000000  -0.4000000   0.0000000), wk =   0.0088889
        k(  108) = (   0.0000000  -0.3333333   0.0000000), wk =   0.0088889
        k(  109) = (   0.0000000  -0.2666667   0.0000000), wk =   0.0088889
        k(  110) = (   0.0000000  -0.2000000   0.0000000), wk =   0.0088889
        k(  111) = (   0.0000000  -0.1333333   0.0000000), wk =   0.0088889
        k(  112) = (   0.0000000  -0.0666667   0.0000000), wk =   0.0088889
        k(  113) = (   0.0000000   0.0000000   0.0000000), wk =   0.0088889
        k(  114) = (   0.0000000   0.0666667   0.0000000), wk =   0.0088889
        k(  115) = (   0.0000000   0.1333333   0.0000000), wk =   0.0088889
        k(  116) = (   0.0000000   0.2000000   0.0000000), wk =   0.0088889
        k(  117) = (   0.0000000   0.2666667   0.0000000), wk =   0.0088889
        k(  118) = (   0.0000000   0.3333333   0.0000000), wk =   0.0088889
        k(  119) = (   0.0000000   0.4000000   0.0000000), wk =   0.0088889
        k(  120) = (   0.0000000   0.4666667   0.0000000), wk =   0.0088889
        k(  121) = (   0.0666667  -0.4666667   0.0000000), wk =   0.0088889
        k(  122) = (   0.0666667  -0.4000000   0.0000000), wk =   0.0088889
        k(  123) = (   0.0666667  -0.3333333   0.0000000), wk =   0.0088889
        k(  124) = (   0.0666667  -0.2666667   0.0000000), wk =   0.0088889
        k(  125) = (   0.0666667  -0.2000000   0.0000000), wk =   0.0088889
        k(  126) = (   0.0666667  -0.1333333   0.0000000), wk =   0.0088889
        k(  127) = (   0.0666667  -0.0666667   0.0000000), wk =   0.0088889
        k(  128) = (   0.0666667   0.0000000   0.0000000), wk =   0.0088889
        k(  129) = (   0.0666667   0.0666667   0.0000000), wk =   0.0088889
        k(  130) = (   0.0666667   0.1333333   0.0000000), wk =   0.0088889
        k(  131) = (   0.0666667   0.2000000   0.0000000), wk =   0.0088889
        k(  132) = (   0.0666667   0.2666667   0.0000000), wk =   0.0088889
        k(  133) = (   0.0666667   0.3333333   0.0000000), wk =   0.0088889
        k(  134) = (   0.0666667   0.4000000   0.0000000), wk =   0.0088889
        k(  135) = (   0.0666667   0.4666667   0.0000000), wk =   0.0088889
        k(  136) = (   0.1333333  -0.4666667   0.0000000), wk =   0.0088889
        k(  137) = (   0.1333333  -0.4000000   0.0000000), wk =   0.0088889
        k(  138) = (   0.1333333  -0.3333333   0.0000000), wk =   0.0088889
        k(  139) = (   0.1333333  -0.2666667   0.0000000), wk =   0.0088889
        k(  140) = (   0.1333333  -0.2000000   0.0000000), wk =   0.0088889
        k(  141) = (   0.1333333  -0.1333333   0.0000000), wk =   0.0088889
        k(  142) = (   0.1333333  -0.0666667   0.0000000), wk =   0.0088889
        k(  143) = (   0.1333333   0.0000000   0.0000000), wk =   0.0088889
        k(  144) = (   0.1333333   0.0666667   0.0000000), wk =   0.0088889
        k(  145) = (   0.1333333   0.1333333   0.0000000), wk =   0.0088889
        k(  146) = (   0.1333333   0.2000000   0.0000000), wk =   0.0088889
        k(  147) = (   0.1333333   0.2666667   0.0000000), wk =   0.0088889
        k(  148) = (   0.1333333   0.3333333   0.0000000), wk =   0.0088889
        k(  149) = (   0.1333333   0.4000000   0.0000000), wk =   0.0088889
        k(  150) = (   0.1333333   0.4666667   0.0000000), wk =   0.0088889
        k(  151) = (   0.2000000  -0.4666667   0.0000000), wk =   0.0088889
        k(  152) = (   0.2000000  -0.4000000   0.0000000), wk =   0.0088889
        k(  153) = (   0.2000000  -0.3333333   0.0000000), wk =   0.0088889
        k(  154) = (   0.2000000  -0.2666667   0.0000000), wk =   0.0088889
        k(  155) = (   0.2000000  -0.2000000   0.0000000), wk =   0.0088889
        k(  156) = (   0.2000000  -0.1333333   0.0000000), wk =   0.0088889
        k(  157) = (   0.2000000  -0.0666667   0.0000000), wk =   0.0088889
        k(  158) = (   0.2000000   0.0000000   0.0000000), wk =   0.0088889
        k(  159) = (   0.2000000   0.0666667   0.0000000), wk =   0.0088889
        k(  160) = (   0.2000000   0.1333333   0.0000000), wk =   0.0088889
        k(  161) = (   0.2000000   0.2000000   0.0000000), wk =   0.0088889
        k(  162) = (   0.2000000   0.2666667   0.0000000), wk =   0.0088889
        k(  163) = (   0.2000000   0.3333333   0.0000000), wk =   0.0088889
        k(  164) = (   0.2000000   0.4000000   0.0000000), wk =   0.0088889
        k(  165) = (   0.2000000   0.4666667   0.0000000), wk =   0.0088889
        k(  166) = (   0.2666667  -0.4666667   0.0000000), wk =   0.0088889
        k(  167) = (   0.2666667  -0.4000000   0.0000000), wk =   0.0088889
        k(  168) = (   0.2666667  -0.3333333   0.0000000), wk =   0.0088889
        k(  169) = (   0.2666667  -0.2666667   0.0000000), wk =   0.0088889
        k(  170) = (   0.2666667  -0.2000000   0.0000000), wk =   0.0088889
        k(  171) = (   0.2666667  -0.1333333   0.0000000), wk =   0.0088889
        k(  172) = (   0.2666667  -0.0666667   0.0000000), wk =   0.0088889
        k(  173) = (   0.2666667  -0.0000000   0.0000000), wk =   0.0088889
        k(  174) = (   0.2666667   0.0666667   0.0000000), wk =   0.0088889
        k(  175) = (   0.2666667   0.1333333   0.0000000), wk =   0.0088889
        k(  176) = (   0.2666667   0.2000000   0.0000000), wk =   0.0088889
        k(  177) = (   0.2666667   0.2666667   0.0000000), wk =   0.0088889
        k(  178) = (   0.2666667   0.3333333   0.0000000), wk =   0.0088889
        k(  179) = (   0.2666667   0.4000000   0.0000000), wk =   0.0088889
        k(  180) = (   0.2666667   0.4666667   0.0000000), wk =   0.0088889
        k(  181) = (   0.3333333  -0.4666667   0.0000000), wk =   0.0088889
        k(  182) = (   0.3333333  -0.4000000   0.0000000), wk =   0.0088889
        k(  183) = (   0.3333333  -0.3333333   0.0000000), wk =   0.0088889
        k(  184) = (   0.3333333  -0.2666667   0.0000000), wk =   0.0088889
        k(  185) = (   0.3333333  -0.2000000   0.0000000), wk =   0.0088889
        k(  186) = (   0.3333333  -0.1333333   0.0000000), wk =   0.0088889
        k(  187) = (   0.3333333  -0.0666667   0.0000000), wk =   0.0088889
        k(  188) = (   0.3333333   0.0000000   0.0000000), wk =   0.0088889
        k(  189) = (   0.3333333   0.0666667   0.0000000), wk =   0.0088889
        k(  190) = (   0.3333333   0.1333333   0.0000000), wk =   0.0088889
        k(  191) = (   0.3333333   0.2000000   0.0000000), wk =   0.0088889
        k(  192) = (   0.3333333   0.2666667   0.0000000), wk =   0.0088889
        k(  193) = (   0.3333333   0.3333333   0.0000000), wk =   0.0088889
        k(  194) = (   0.3333333   0.4000000   0.0000000), wk =   0.0088889
        k(  195) = (   0.3333333   0.4666667   0.0000000), wk =   0.0088889
        k(  196) = (   0.4000000  -0.4666667   0.0000000), wk =   0.0088889
        k(  197) = (   0.4000000  -0.4000000   0.0000000), wk =   0.0088889
        k(  198) = (   0.4000000  -0.3333333   0.0000000), wk =   0.0088889
        k(  199) = (   0.4000000  -0.2666667   0.0000000), wk =   0.0088889
        k(  200) = (   0.4000000  -0.2000000   0.0000000), wk =   0.0088889
        k(  201) = (   0.4000000  -0.1333333   0.0000000), wk =   0.0088889
        k(  202) = (   0.4000000  -0.0666667   0.0000000), wk =   0.0088889
        k(  203) = (   0.4000000   0.0000000   0.0000000), wk =   0.0088889
        k(  204) = (   0.4000000   0.0666667   0.0000000), wk =   0.0088889
        k(  205) = (   0.4000000   0.1333333   0.0000000), wk =   0.0088889
        k(  206) = (   0.4000000   0.2000000   0.0000000), wk =   0.0088889
        k(  207) = (   0.4000000   0.2666667   0.0000000), wk =   0.0088889
        k(  208) = (   0.4000000   0.3333333   0.0000000), wk =   0.0088889
        k(  209) = (   0.4000000   0.4000000   0.0000000), wk =   0.0088889
        k(  210) = (   0.4000000   0.4666667   0.0000000), wk =   0.0088889
        k(  211) = (   0.4666667  -0.4666667   0.0000000), wk =   0.0088889
        k(  212) = (   0.4666667  -0.4000000   0.0000000), wk =   0.0088889
        k(  213) = (   0.4666667  -0.3333333   0.0000000), wk =   0.0088889
        k(  214) = (   0.4666667  -0.2666667   0.0000000), wk =   0.0088889
        k(  215) = (   0.4666667  -0.2000000   0.0000000), wk =   0.0088889
        k(  216) = (   0.4666667  -0.1333333   0.0000000), wk =   0.0088889
        k(  217) = (   0.4666667  -0.0666667   0.0000000), wk =   0.0088889
        k(  218) = (   0.4666667  -0.0000000   0.0000000), wk =   0.0088889
        k(  219) = (   0.4666667   0.0666667   0.0000000), wk =   0.0088889
        k(  220) = (   0.4666667   0.1333333   0.0000000), wk =   0.0088889
        k(  221) = (   0.4666667   0.2000000   0.0000000), wk =   0.0088889
        k(  222) = (   0.4666667   0.2666667   0.0000000), wk =   0.0088889
        k(  223) = (   0.4666667   0.3333333   0.0000000), wk =   0.0088889
        k(  224) = (   0.4666667   0.4000000   0.0000000), wk =   0.0088889
        k(  225) = (   0.4666667   0.4666667   0.0000000), wk =   0.0088889

     Dense  grid:   111175 G-vectors     FFT dimensions: (  27,  27, 360)

     Dynamical RAM for                 wfc:       0.27 MB

     Dynamical RAM for     wfc (w. buffer):       0.27 MB

     Dynamical RAM for           str. fact:       0.16 MB

     Dynamical RAM for           local pot:       0.00 MB

     Dynamical RAM for          nlocal pot:       0.61 MB

     Dynamical RAM for                qrad:      10.91 MB

     Dynamical RAM for          rho,v,vnew:       0.27 MB

     Dynamical RAM for           G-vectors:       0.17 MB

     Dynamical RAM for          h,s,v(r/c):       0.51 MB

     Dynamical RAM for          <psi|beta>:       0.10 MB

     Dynamical RAM for                 psi:       0.53 MB

     Dynamical RAM for                hpsi:       0.53 MB

     Dynamical RAM for      wfcinit/wfcrot:       0.60 MB

     Estimated static dynamical RAM per process >      12.84 MB

     Estimated max dynamical RAM per process >      14.53 MB

     Estimated total dynamical RAM >     610.06 MB

     Atomic positions and unit cell read from directory:
     ./calc.save/


     The potential is recalculated from file :
     ./calc.save/charge-density

     Starting wfcs are random

     Band Structure Calculation
     Davidson diagonalization with overlap

     Computing kpt #:     1  of   225
     total cpu time spent up to now is        3.8 secs

     Computing kpt #:     2  of   225
     total cpu time spent up to now is        6.8 secs

     Computing kpt #:     3  of   225
     total cpu time spent up to now is        9.9 secs

     Computing kpt #:     4  of   225
     total cpu time spent up to now is       13.5 secs

     Computing kpt #:     5  of   225
     total cpu time spent up to now is       16.4 secs

     Computing kpt #:     6  of   225
     total cpu time spent up to now is       19.2 secs

     Computing kpt #:     7  of   225
     total cpu time spent up to now is       22.2 secs

     Computing kpt #:     8  of   225
     total cpu time spent up to now is       25.9 secs

     Computing kpt #:     9  of   225
     total cpu time spent up to now is       29.0 secs

     Computing kpt #:    10  of   225
     total cpu time spent up to now is       32.2 secs

     Computing kpt #:    11  of   225
     total cpu time spent up to now is       35.5 secs

     Computing kpt #:    12  of   225
     total cpu time spent up to now is       39.2 secs

     Computing kpt #:    13  of   225
     total cpu time spent up to now is       42.3 secs

     Computing kpt #:    14  of   225
     total cpu time spent up to now is       45.6 secs

     Computing kpt #:    15  of   225
     total cpu time spent up to now is       48.8 secs

     Computing kpt #:    16  of   225
     total cpu time spent up to now is       51.8 secs

     Computing kpt #:    17  of   225
     total cpu time spent up to now is       54.7 secs

     Computing kpt #:    18  of   225
     total cpu time spent up to now is       58.5 secs

     Computing kpt #:    19  of   225
     total cpu time spent up to now is       62.0 secs

     Computing kpt #:    20  of   225
     total cpu time spent up to now is       64.8 secs

     Computing kpt #:    21  of   225
     total cpu time spent up to now is       68.1 secs

     Computing kpt #:    22  of   225
     total cpu time spent up to now is       71.4 secs

     Computing kpt #:    23  of   225
     total cpu time spent up to now is       74.8 secs

     Computing kpt #:    24  of   225
     total cpu time spent up to now is       78.5 secs

     Computing kpt #:    25  of   225
     total cpu time spent up to now is       82.1 secs

     Computing kpt #:    26  of   225
     total cpu time spent up to now is       85.8 secs

     Computing kpt #:    27  of   225
     total cpu time spent up to now is       89.3 secs

     Computing kpt #:    28  of   225
     total cpu time spent up to now is       93.0 secs

     Computing kpt #:    29  of   225
     total cpu time spent up to now is       96.6 secs

     Computing kpt #:    30  of   225
     total cpu time spent up to now is       99.7 secs

     Computing kpt #:    31  of   225
     total cpu time spent up to now is      102.5 secs

     Computing kpt #:    32  of   225
     total cpu time spent up to now is      106.3 secs

     Computing kpt #:    33  of   225
     total cpu time spent up to now is      109.6 secs

     Computing kpt #:    34  of   225
     total cpu time spent up to now is      113.2 secs

     Computing kpt #:    35  of   225
     total cpu time spent up to now is      116.4 secs

     Computing kpt #:    36  of   225
     total cpu time spent up to now is      119.2 secs

     Computing kpt #:    37  of   225
     total cpu time spent up to now is      122.8 secs

     Computing kpt #:    38  of   225
     total cpu time spent up to now is      126.8 secs

     Computing kpt #:    39  of   225
     total cpu time spent up to now is      130.2 secs

     Computing kpt #:    40  of   225
     total cpu time spent up to now is      133.5 secs

     Computing kpt #:    41  of   225
     total cpu time spent up to now is      136.7 secs

     Computing kpt #:    42  of   225
     total cpu time spent up to now is      140.1 secs

     Computing kpt #:    43  of   225
     total cpu time spent up to now is      144.2 secs

     Computing kpt #:    44  of   225
     total cpu time spent up to now is      148.1 secs

     Computing kpt #:    45  of   225
     total cpu time spent up to now is      151.3 secs

     Computing kpt #:    46  of   225
     total cpu time spent up to now is      155.2 secs

     Computing kpt #:    47  of   225
     total cpu time spent up to now is      158.4 secs

     Computing kpt #:    48  of   225
     total cpu time spent up to now is      161.8 secs

     Computing kpt #:    49  of   225
     total cpu time spent up to now is      165.0 secs

     Computing kpt #:    50  of   225
     total cpu time spent up to now is      168.7 secs

     Computing kpt #:    51  of   225
     total cpu time spent up to now is      172.7 secs

     Computing kpt #:    52  of   225
     total cpu time spent up to now is      176.1 secs

     Computing kpt #:    53  of   225
     total cpu time spent up to now is      179.3 secs

     Computing kpt #:    54  of   225
     total cpu time spent up to now is      182.6 secs

     Computing kpt #:    55  of   225
     total cpu time spent up to now is      186.0 secs

     Computing kpt #:    56  of   225
     total cpu time spent up to now is      189.1 secs

     Computing kpt #:    57  of   225
     total cpu time spent up to now is      192.2 secs

     Computing kpt #:    58  of   225
     total cpu time spent up to now is      195.3 secs

     Computing kpt #:    59  of   225
     total cpu time spent up to now is      198.9 secs

     Computing kpt #:    60  of   225
     total cpu time spent up to now is      202.7 secs

     Computing kpt #:    61  of   225
     total cpu time spent up to now is      205.8 secs

     Computing kpt #:    62  of   225
     total cpu time spent up to now is      208.9 secs

     Computing kpt #:    63  of   225
     total cpu time spent up to now is      212.0 secs

     Computing kpt #:    64  of   225
     total cpu time spent up to now is      215.8 secs

     Computing kpt #:    65  of   225
     total cpu time spent up to now is      219.5 secs

     Computing kpt #:    66  of   225
     total cpu time spent up to now is      222.6 secs

     Computing kpt #:    67  of   225
     total cpu time spent up to now is      225.9 secs

     Computing kpt #:    68  of   225
     total cpu time spent up to now is      229.1 secs

     Computing kpt #:    69  of   225
     total cpu time spent up to now is      232.6 secs

     Computing kpt #:    70  of   225
     total cpu time spent up to now is      236.0 secs

     Computing kpt #:    71  of   225
     total cpu time spent up to now is      239.4 secs

     Computing kpt #:    72  of   225
     total cpu time spent up to now is      242.7 secs

     Computing kpt #:    73  of   225
     total cpu time spent up to now is      245.9 secs

     Computing kpt #:    74  of   225
     total cpu time spent up to now is      249.3 secs

     Computing kpt #:    75  of   225
     total cpu time spent up to now is      253.2 secs

     Computing kpt #:    76  of   225
     total cpu time spent up to now is      256.2 secs

     Computing kpt #:    77  of   225
     total cpu time spent up to now is      259.1 secs

     Computing kpt #:    78  of   225
     total cpu time spent up to now is      262.4 secs

     Computing kpt #:    79  of   225
     total cpu time spent up to now is      265.5 secs

     Computing kpt #:    80  of   225
     total cpu time spent up to now is      268.9 secs

     Computing kpt #:    81  of   225
     total cpu time spent up to now is      272.3 secs

     Computing kpt #:    82  of   225
     total cpu time spent up to now is      275.4 secs

     Computing kpt #:    83  of   225
     total cpu time spent up to now is      279.0 secs

     Computing kpt #:    84  of   225
     total cpu time spent up to now is      282.3 secs

     Computing kpt #:    85  of   225
     total cpu time spent up to now is      285.7 secs

     Computing kpt #:    86  of   225
     total cpu time spent up to now is      289.1 secs

     Computing kpt #:    87  of   225
     total cpu time spent up to now is      292.3 secs

     Computing kpt #:    88  of   225
     total cpu time spent up to now is      295.4 secs

     Computing kpt #:    89  of   225
     total cpu time spent up to now is      299.0 secs

     Computing kpt #:    90  of   225
     total cpu time spent up to now is      302.3 secs

     Computing kpt #:    91  of   225
     total cpu time spent up to now is      305.4 secs

     Computing kpt #:    92  of   225
     total cpu time spent up to now is      308.2 secs

     Computing kpt #:    93  of   225
     total cpu time spent up to now is      311.9 secs

     Computing kpt #:    94  of   225
     total cpu time spent up to now is      315.3 secs

     Computing kpt #:    95  of   225
     total cpu time spent up to now is      318.5 secs

     Computing kpt #:    96  of   225
     total cpu time spent up to now is      321.7 secs

     Computing kpt #:    97  of   225
     total cpu time spent up to now is      325.2 secs

     Computing kpt #:    98  of   225
     total cpu time spent up to now is      328.8 secs

     Computing kpt #:    99  of   225
     total cpu time spent up to now is      332.5 secs

     Computing kpt #:   100  of   225
     total cpu time spent up to now is      335.9 secs

     Computing kpt #:   101  of   225
     total cpu time spent up to now is      339.3 secs

     Computing kpt #:   102  of   225
     total cpu time spent up to now is      342.5 secs

     Computing kpt #:   103  of   225
     total cpu time spent up to now is      346.0 secs

     Computing kpt #:   104  of   225
     total cpu time spent up to now is      349.9 secs

     Computing kpt #:   105  of   225
     total cpu time spent up to now is      353.1 secs

     Computing kpt #:   106  of   225
     total cpu time spent up to now is      356.6 secs

     Computing kpt #:   107  of   225
     total cpu time spent up to now is      360.0 secs

     Computing kpt #:   108  of   225
     total cpu time spent up to now is      364.0 secs

     Computing kpt #:   109  of   225
     total cpu time spent up to now is      367.2 secs

     Computing kpt #:   110  of   225
     total cpu time spent up to now is      370.4 secs

     Computing kpt #:   111  of   225
     total cpu time spent up to now is      373.8 secs

     Computing kpt #:   112  of   225
     total cpu time spent up to now is      377.3 secs

     Computing kpt #:   113  of   225
     total cpu time spent up to now is      381.2 secs

     Computing kpt #:   114  of   225
     total cpu time spent up to now is      384.8 secs

     Computing kpt #:   115  of   225
     total cpu time spent up to now is      388.3 secs

     Computing kpt #:   116  of   225
     total cpu time spent up to now is      391.5 secs

     Computing kpt #:   117  of   225
     total cpu time spent up to now is      394.9 secs

     Computing kpt #:   118  of   225
     total cpu time spent up to now is      398.1 secs

     Computing kpt #:   119  of   225
     total cpu time spent up to now is      401.4 secs

     Computing kpt #:   120  of   225
     total cpu time spent up to now is      404.9 secs

     Computing kpt #:   121  of   225
     total cpu time spent up to now is      408.1 secs

     Computing kpt #:   122  of   225
     total cpu time spent up to now is      411.7 secs

     Computing kpt #:   123  of   225
     total cpu time spent up to now is      415.1 secs

     Computing kpt #:   124  of   225
     total cpu time spent up to now is      418.7 secs

     Computing kpt #:   125  of   225
     total cpu time spent up to now is      422.1 secs

     Computing kpt #:   126  of   225
     total cpu time spent up to now is      425.5 secs

     Computing kpt #:   127  of   225
     total cpu time spent up to now is      429.0 secs

     Computing kpt #:   128  of   225
     total cpu time spent up to now is      432.5 secs

     Computing kpt #:   129  of   225
     total cpu time spent up to now is      436.0 secs

     Computing kpt #:   130  of   225
     total cpu time spent up to now is      439.2 secs

     Computing kpt #:   131  of   225
     total cpu time spent up to now is      442.5 secs

     Computing kpt #:   132  of   225
     total cpu time spent up to now is      445.9 secs

     Computing kpt #:   133  of   225
     total cpu time spent up to now is      449.3 secs

     Computing kpt #:   134  of   225
     total cpu time spent up to now is      452.5 secs

     Computing kpt #:   135  of   225
     total cpu time spent up to now is      455.5 secs

     Computing kpt #:   136  of   225
     total cpu time spent up to now is      458.9 secs

     Computing kpt #:   137  of   225
     total cpu time spent up to now is      462.8 secs

     Computing kpt #:   138  of   225
     total cpu time spent up to now is      466.1 secs

     Computing kpt #:   139  of   225
     total cpu time spent up to now is      469.4 secs

     Computing kpt #:   140  of   225
     total cpu time spent up to now is      473.0 secs

     Computing kpt #:   141  of   225
     total cpu time spent up to now is      476.5 secs

     Computing kpt #:   142  of   225
     total cpu time spent up to now is      480.0 secs

     Computing kpt #:   143  of   225
     total cpu time spent up to now is      483.4 secs

     Computing kpt #:   144  of   225
     total cpu time spent up to now is      486.7 secs

     Computing kpt #:   145  of   225
     total cpu time spent up to now is      490.1 secs

     Computing kpt #:   146  of   225
     total cpu time spent up to now is      493.4 secs

     Computing kpt #:   147  of   225
     total cpu time spent up to now is      497.3 secs

     Computing kpt #:   148  of   225
     total cpu time spent up to now is      500.5 secs

     Computing kpt #:   149  of   225
     total cpu time spent up to now is      503.3 secs

     Computing kpt #:   150  of   225
     total cpu time spent up to now is      506.2 secs

     Computing kpt #:   151  of   225
     total cpu time spent up to now is      510.0 secs

     Computing kpt #:   152  of   225
     total cpu time spent up to now is      513.9 secs

     Computing kpt #:   153  of   225
     total cpu time spent up to now is      517.0 secs

     Computing kpt #:   154  of   225
     total cpu time spent up to now is      520.1 secs

     Computing kpt #:   155  of   225
     total cpu time spent up to now is      523.3 secs

     Computing kpt #:   156  of   225
     total cpu time spent up to now is      526.6 secs

     Computing kpt #:   157  of   225
     total cpu time spent up to now is      530.0 secs

     Computing kpt #:   158  of   225
     total cpu time spent up to now is      533.5 secs

     Computing kpt #:   159  of   225
     total cpu time spent up to now is      537.0 secs

     Computing kpt #:   160  of   225
     total cpu time spent up to now is      540.2 secs

     Computing kpt #:   161  of   225
     total cpu time spent up to now is      543.8 secs

     Computing kpt #:   162  of   225
     total cpu time spent up to now is      548.2 secs

     Computing kpt #:   163  of   225
     total cpu time spent up to now is      551.5 secs

     Computing kpt #:   164  of   225
     total cpu time spent up to now is      554.5 secs

     Computing kpt #:   165  of   225
     total cpu time spent up to now is      557.8 secs

     Computing kpt #:   166  of   225
     total cpu time spent up to now is      562.0 secs

     Computing kpt #:   167  of   225
     total cpu time spent up to now is      565.5 secs

     Computing kpt #:   168  of   225
     total cpu time spent up to now is      569.1 secs

     Computing kpt #:   169  of   225
     total cpu time spent up to now is      572.4 secs

     Computing kpt #:   170  of   225
     total cpu time spent up to now is      575.8 secs

     Computing kpt #:   171  of   225
     total cpu time spent up to now is      579.0 secs

     Computing kpt #:   172  of   225
     total cpu time spent up to now is      582.2 secs

     Computing kpt #:   173  of   225
     total cpu time spent up to now is      585.6 secs

     Computing kpt #:   174  of   225
     total cpu time spent up to now is      589.1 secs

     Computing kpt #:   175  of   225
     total cpu time spent up to now is      592.9 secs

     Computing kpt #:   176  of   225
     total cpu time spent up to now is      596.7 secs

     Computing kpt #:   177  of   225
     total cpu time spent up to now is      600.6 secs

     Computing kpt #:   178  of   225
     total cpu time spent up to now is      604.3 secs

     Computing kpt #:   179  of   225
     total cpu time spent up to now is      607.5 secs

     Computing kpt #:   180  of   225
     total cpu time spent up to now is      611.1 secs

     Computing kpt #:   181  of   225
     total cpu time spent up to now is      614.2 secs

     Computing kpt #:   182  of   225
     total cpu time spent up to now is      617.9 secs

     Computing kpt #:   183  of   225
     total cpu time spent up to now is      621.8 secs

     Computing kpt #:   184  of   225
     total cpu time spent up to now is      625.3 secs

     Computing kpt #:   185  of   225
     total cpu time spent up to now is      628.6 secs

     Computing kpt #:   186  of   225
     total cpu time spent up to now is      631.8 secs

     Computing kpt #:   187  of   225
     total cpu time spent up to now is      635.1 secs

     Computing kpt #:   188  of   225
     total cpu time spent up to now is      639.1 secs

     Computing kpt #:   189  of   225
     total cpu time spent up to now is      642.8 secs

     Computing kpt #:   190  of   225
     total cpu time spent up to now is      646.2 secs

     Computing kpt #:   191  of   225
     total cpu time spent up to now is      649.6 secs

     Computing kpt #:   192  of   225
     total cpu time spent up to now is      653.1 secs

     Computing kpt #:   193  of   225
     total cpu time spent up to now is      656.4 secs

     Computing kpt #:   194  of   225
     total cpu time spent up to now is      660.2 secs

     Computing kpt #:   195  of   225
     total cpu time spent up to now is      663.1 secs

     Computing kpt #:   196  of   225
     total cpu time spent up to now is      666.2 secs

     Computing kpt #:   197  of   225
     total cpu time spent up to now is      669.5 secs

     Computing kpt #:   198  of   225
     total cpu time spent up to now is      673.2 secs

     Computing kpt #:   199  of   225
     total cpu time spent up to now is      676.6 secs

     Computing kpt #:   200  of   225
     total cpu time spent up to now is      679.8 secs

     Computing kpt #:   201  of   225
     total cpu time spent up to now is      683.7 secs

     Computing kpt #:   202  of   225
     total cpu time spent up to now is      687.5 secs

     Computing kpt #:   203  of   225
     total cpu time spent up to now is      691.2 secs

     Computing kpt #:   204  of   225
     total cpu time spent up to now is      694.5 secs

     Computing kpt #:   205  of   225
     total cpu time spent up to now is      697.3 secs

     Computing kpt #:   206  of   225
     total cpu time spent up to now is      700.3 secs

     Computing kpt #:   207  of   225
     total cpu time spent up to now is      704.2 secs

     Computing kpt #:   208  of   225
     total cpu time spent up to now is      707.5 secs

     Computing kpt #:   209  of   225
     total cpu time spent up to now is      710.8 secs

     Computing kpt #:   210  of   225
     total cpu time spent up to now is      713.8 secs

     Computing kpt #:   211  of   225
     total cpu time spent up to now is      717.1 secs

     Computing kpt #:   212  of   225
     total cpu time spent up to now is      720.2 secs

     Computing kpt #:   213  of   225
     total cpu time spent up to now is      723.3 secs

     Computing kpt #:   214  of   225
     total cpu time spent up to now is      726.7 secs

     Computing kpt #:   215  of   225
     total cpu time spent up to now is      730.3 secs

     Computing kpt #:   216  of   225
     total cpu time spent up to now is      733.7 secs

     Computing kpt #:   217  of   225
     total cpu time spent up to now is      736.7 secs

     Computing kpt #:   218  of   225
     total cpu time spent up to now is      740.3 secs

     Computing kpt #:   219  of   225
     total cpu time spent up to now is      743.2 secs

     Computing kpt #:   220  of   225
     total cpu time spent up to now is      746.2 secs

     Computing kpt #:   221  of   225
     total cpu time spent up to now is      749.1 secs

     Computing kpt #:   222  of   225
     total cpu time spent up to now is      752.8 secs

     Computing kpt #:   223  of   225
     total cpu time spent up to now is      756.1 secs

     Computing kpt #:   224  of   225
     total cpu time spent up to now is      759.0 secs

     Computing kpt #:   225  of   225
     total cpu time spent up to now is      762.0 secs

     ethr =  8.55E-11,  avg # of iterations = 50.7

     total cpu time spent up to now is      762.0 secs

     End of band structure calculation

          k =-0.1447-0.2507 0.0000 ( 13940 PWs)   bands (ev):

   -71.0375 -58.5541 -35.6600 -35.5906 -35.4311 -34.4203 -34.3904 -34.3650
   -34.3473 -34.3384 -34.3282 -34.2825 -34.2525 -34.2162 -34.1895 -32.8737
   -32.7305 -32.6344 -25.2888 -25.2850 -25.2838 -25.2781 -25.2765 -25.2170
   -25.2163 -10.3745 -10.2489  -8.7566  -8.5882  -4.7542  -3.8068  -3.6096
    -2.9720  -1.9439  -1.7331  -0.7639  -0.4532  -0.0197   0.4114   0.9387
     1.0060   1.7896   2.3782   4.2815   4.7178   4.8860   5.2745   5.8596
     6.0934   6.6612   6.8612   6.9312   7.8295

     occupation numbers 
     1.0000   1.0000   1.0000   1.0000   1.0000   1.0000   1.0000   1.0000
     1.0000   1.0000   1.0000   1.0000   1.0000   1.0000   1.0000   1.0000
     1.0000   1.0000   1.0000   1.0000   1.0000   1.0000   1.0000   1.0000
     1.0000   1.0000   1.0000   1.0000   1.0000   1.0000   1.0000   1.0000
     1.0000   1.0000   1.0000   1.0000   1.0000   1.0000   1.0000   1.0000
     1.0000   1.0000   1.0000   0.0000   0.0000   0.0000   0.0000   0.0000
     0.0000   0.0000   0.0000   0.0000   0.0000

          k =-0.1447-0.2268 0.0000 ( 13914 PWs)   bands (ev):

   -71.0373 -58.5535 -35.6613 -35.5818 -35.4452 -34.4133 -34.3883 -34.3651
   -34.3543 -34.3382 -34.3316 -34.2827 -34.2556 -34.2147 -34.1840 -32.8579
   -32.7291 -32.6585 -25.2885 -25.2844 -25.2843 -25.2785 -25.2766 -25.2170
   -25.2164 -10.3390 -10.2180  -8.7063  -8.5360  -4.4685  -3.5841  -3.5073
    -2.9702  -1.8750  -1.6548  -0.9511  -0.8214   0.0401   0.1694   0.3232
     0.4779   1.8592   2.1260   4.2158   4.7106   4.9369   5.4100   5.5443
     5.8493   6.1907   6.9738   7.3808   8.1328

     occupation numbers 
     1.0000   1.0000   1.0000   1.0000   1.0000   1.0000   1.0000   1.0000
     1.0000   1.0000   1.0000   1.0000   1.0000   1.0000   1.0000   1.0000
     1.0000   1.0000   1.0000   1.0000   1.0000   1.0000   1.0000   1.0000
     1.0000   1.0000   1.0000   1.0000   1.0000   1.0000   1.0000   1.0000
     1.0000   1.0000   1.0000   1.0000   1.0000   1.0000   1.0000   1.0000
     1.0000   1.0000   1.0000   0.0000   0.0000   0.0000   0.0000   0.0000
     0.0000   0.0000   0.0000   0.0000   0.0000

          k =-0.1447-0.2029 0.0000 ( 13894 PWs)   bands (ev):

   -71.0371 -58.5530 -35.6620 -35.5682 -35.4619 -34.4033 -34.3868 -34.3646
   -34.3625 -34.3383 -34.3362 -34.2832 -34.2588 -34.2136 -34.1794 -32.8338
   -32.7282 -32.6885 -25.2880 -25.2848 -25.2836 -25.2792 -25.2767 -25.2172
   -25.2164 -10.3211 -10.1967  -8.7038  -8.5057  -3.9933  -3.3276  -3.2444
    -2.9441  -1.7914  -1.5910  -1.2479  -1.0649  -0.6775  -0.5098   0.1870
     0.5455   1.8587   2.0386   4.0835   4.5630   4.9392   4.9966   5.1656
     5.7291   6.4283   7.4679   7.9224   8.6548

     occupation numbers 
     1.0000   1.0000   1.0000   1.0000   1.0000   1.0000   1.0000   1.0000
     1.0000   1.0000   1.0000   1.0000   1.0000   1.0000   1.0000   1.0000
     1.0000   1.0000   1.0000   1.0000   1.0000   1.0000   1.0000   1.0000
     1.0000   1.0000   1.0000   1.0000   1.0000   1.0000   1.0000   1.0000
     1.0000   1.0000   1.0000   1.0000   1.0000   1.0000   1.0000   1.0000
     1.0000   1.0000   1.0000   0.0000   0.0000   0.0000   0.0000   0.0000
     0.0000   0.0000   0.0000   0.0000   0.0000

          k =-0.1447-0.1791 0.0000 ( 13889 PWs)   bands (ev):

   -71.0370 -58.5529 -35.6622 -35.5607 -35.4705 -34.3972 -34.3865 -34.3695
   -34.3618 -34.3387 -34.3385 -34.2835 -34.2601 -34.2131 -34.1777 -32.8197
   -32.7279 -32.7047 -25.2877 -25.2851 -25.2831 -25.2796 -25.2767 -25.2173
   -25.2164 -10.3161 -10.1890  -8.7088  -8.4960  -3.7045  -3.2210  -3.0591
    -2.9229  -1.7320  -1.6500  -1.3184  -1.1652  -1.0632  -0.9217   0.2310
     0.5842   1.8532   2.0192   4.0138   4.4699   4.7986   4.8870   5.0362
     5.7663   6.5595   7.8038   8.1972   8.9210

     occupation numbers 
     1.0000   1.0000   1.0000   1.0000   1.0000   1.0000   1.0000   1.0000
     1.0000   1.0000   1.0000   1.0000   1.0000   1.0000   1.0000   1.0000
     1.0000   1.0000   1.0000   1.0000   1.0000   1.0000   1.0000   1.0000
     1.0000   1.0000   1.0000   1.0000   1.0000   1.0000   1.0000   1.0000
     1.0000   1.0000   1.0000   1.0000   1.0000   1.0000   1.0000   1.0000
     1.0000   1.0000   1.0000   0.0000   0.0000   0.0000   0.0000   0.0000
     0.0000   0.0000   0.0000   0.0000   0.0000

          k =-0.1447-0.1552 0.0000 ( 13894 PWs)   bands (ev):

   -71.0371 -58.5530 -35.6620 -35.5682 -35.4619 -34.4033 -34.3868 -34.3646
   -34.3625 -34.3383 -34.3362 -34.2832 -34.2588 -34.2136 -34.1794 -32.8338
   -32.7282 -32.6885 -25.2880 -25.2848 -25.2836 -25.2792 -25.2767 -25.2172
   -25.2164 -10.3211 -10.1967  -8.7038  -8.5057  -3.9933  -3.3276  -3.2444
    -2.9441  -1.7914  -1.5910  -1.2479  -1.0649  -0.6775  -0.5098   0.1870
     0.5455   1.8587   2.0386   4.0835   4.5630   4.9392   4.9966   5.1656
     5.7291   6.4283   7.4679   7.9224   8.6548

     occupation numbers 
     1.0000   1.0000   1.0000   1.0000   1.0000   1.0000   1.0000   1.0000
     1.0000   1.0000   1.0000   1.0000   1.0000   1.0000   1.0000   1.0000
     1.0000   1.0000   1.0000   1.0000   1.0000   1.0000   1.0000   1.0000
     1.0000   1.0000   1.0000   1.0000   1.0000   1.0000   1.0000   1.0000
     1.0000   1.0000   1.0000   1.0000   1.0000   1.0000   1.0000   1.0000
     1.0000   1.0000   1.0000   0.0000   0.0000   0.0000   0.0000   0.0000
     0.0000   0.0000   0.0000   0.0000   0.0000

          k =-0.1447-0.1313 0.0000 ( 13914 PWs)   bands (ev):

   -71.0373 -58.5535 -35.6613 -35.5818 -35.4452 -34.4133 -34.3883 -34.3651
   -34.3543 -34.3382 -34.3316 -34.2827 -34.2556 -34.2147 -34.1840 -32.8579
   -32.7291 -32.6585 -25.2885 -25.2844 -25.2843 -25.2785 -25.2766 -25.2170
   -25.2164 -10.3390 -10.2180  -8.7063  -8.5360  -4.4685  -3.5841  -3.5073
    -2.9702  -1.8750  -1.6548  -0.9511  -0.8214   0.0401   0.1694   0.3232
     0.4779   1.8592   2.1260   4.2158   4.7106   4.9369   5.4100   5.5443
     5.8493   6.1907   6.9738   7.3808   8.1328

     occupation numbers 
     1.0000   1.0000   1.0000   1.0000   1.0000   1.0000   1.0000   1.0000
     1.0000   1.0000   1.0000   1.0000   1.0000   1.0000   1.0000   1.0000
     1.0000   1.0000   1.0000   1.0000   1.0000   1.0000   1.0000   1.0000
     1.0000   1.0000   1.0000   1.0000   1.0000   1.0000   1.0000   1.0000
     1.0000   1.0000   1.0000   1.0000   1.0000   1.0000   1.0000   1.0000
     1.0000   1.0000   1.0000   0.0000   0.0000   0.0000   0.0000   0.0000
     0.0000   0.0000   0.0000   0.0000   0.0000

          k =-0.1447-0.1074 0.0000 ( 13940 PWs)   bands (ev):

   -71.0375 -58.5541 -35.6600 -35.5906 -35.4311 -34.4203 -34.3904 -34.3650
   -34.3473 -34.3384 -34.3282 -34.2825 -34.2525 -34.2162 -34.1895 -32.8737
   -32.7305 -32.6344 -25.2888 -25.2850 -25.2838 -25.2781 -25.2765 -25.2170
   -25.2163 -10.3745 -10.2489  -8.7566  -8.5882  -4.7542  -3.8068  -3.6096
    -2.9720  -1.9439  -1.7331  -0.7639  -0.4532  -0.0197   0.4114   0.9387
     1.0060   1.7896   2.3782   4.2815   4.7178   4.8860   5.2745   5.8596
     6.0934   6.6612   6.8612   6.9312   7.8295

     occupation numbers 
     1.0000   1.0000   1.0000   1.0000   1.0000   1.0000   1.0000   1.0000
     1.0000   1.0000   1.0000   1.0000   1.0000   1.0000   1.0000   1.0000
     1.0000   1.0000   1.0000   1.0000   1.0000   1.0000   1.0000   1.0000
     1.0000   1.0000   1.0000   1.0000   1.0000   1.0000   1.0000   1.0000
     1.0000   1.0000   1.0000   1.0000   1.0000   1.0000   1.0000   1.0000
     1.0000   1.0000   1.0000   0.0000   0.0000   0.0000   0.0000   0.0000
     0.0000   0.0000   0.0000   0.0000   0.0000

          k =-0.1447-0.0836 0.0000 ( 13932 PWs)   bands (ev):

   -71.0378 -58.5548 -35.6581 -35.5901 -35.4248 -34.4222 -34.3913 -34.3653
   -34.3449 -34.3387 -34.3271 -34.2830 -34.2518 -34.2171 -34.1939 -32.8747
   -32.7320 -32.6246 -25.2888 -25.2851 -25.2836 -25.2780 -25.2766 -25.2172
   -25.2160 -10.4283 -10.2831  -8.8781  -8.6578  -4.7287  -3.8296  -3.5665
    -2.9278  -1.9720  -1.7581  -0.6652  -0.2302  -0.0931   0.4001   1.1503
     1.3735   1.6069   2.5939   4.2893   4.6160   4.7801   5.1734   5.7700
     6.3731   6.5883   6.8666   7.6771   7.8516

     occupation numbers 
     1.0000   1.0000   1.0000   1.0000   1.0000   1.0000   1.0000   1.0000
     1.0000   1.0000   1.0000   1.0000   1.0000   1.0000   1.0000   1.0000
     1.0000   1.0000   1.0000   1.0000   1.0000   1.0000   1.0000   1.0000
     1.0000   1.0000   1.0000   1.0000   1.0000   1.0000   1.0000   1.0000
     1.0000   1.0000   1.0000   1.0000   1.0000   1.0000   1.0000   1.0000
     1.0000   1.0000   1.0000   0.0000   0.0000   0.0000   0.0000   0.0000
     0.0000   0.0000   0.0000   0.0000   0.0000

          k =-0.1447-0.0597 0.0000 ( 13929 PWs)   bands (ev):

   -71.0381 -58.5554 -35.6560 -35.5800 -35.4274 -34.4183 -34.3903 -34.3667
   -34.3490 -34.3374 -34.3287 -34.2841 -34.2542 -34.2170 -34.1961 -32.8605
   -32.7335 -32.6309 -25.2885 -25.2848 -25.2837 -25.2783 -25.2767 -25.2174
   -25.2158 -10.4921 -10.3140  -9.0417  -8.7322  -4.4109  -3.6514  -3.3735
    -2.8292  -1.9424  -1.7086  -0.7463  -0.4351   0.0635   0.4837   0.8132
     0.9254   1.7047   2.3601   4.2163   4.5551   4.7198   5.2803   5.7158
     6.1286   6.6230   7.0433   7.2142   8.2417

     occupation numbers 
     1.0000   1.0000   1.0000   1.0000   1.0000   1.0000   1.0000   1.0000
     1.0000   1.0000   1.0000   1.0000   1.0000   1.0000   1.0000   1.0000
     1.0000   1.0000   1.0000   1.0000   1.0000   1.0000   1.0000   1.0000
     1.0000   1.0000   1.0000   1.0000   1.0000   1.0000   1.0000   1.0000
     1.0000   1.0000   1.0000   1.0000   1.0000   1.0000   1.0000   1.0000
     1.0000   1.0000   1.0000   0.0000   0.0000   0.0000   0.0000   0.0000
     0.0000   0.0000   0.0000   0.0000   0.0000

          k =-0.1447-0.0358 0.0000 ( 13901 PWs)   bands (ev):

   -71.0384 -58.5560 -35.6541 -35.5641 -35.4370 -34.4099 -34.3887 -34.3676
   -34.3571 -34.3364 -34.3323 -34.2852 -34.2580 -34.2164 -34.1964 -32.8363
   -32.7347 -32.6494 -25.2880 -25.2842 -25.2840 -25.2790 -25.2768 -25.2176
   -25.2158 -10.5496 -10.3367  -9.1893  -8.7945  -3.9164  -3.3434  -3.0636
    -2.6888  -1.8511  -1.5897  -1.0195  -0.8103   0.0528   0.1930   0.3407
     0.6969   1.6978   2.1103   3.9984   4.4749   4.6808   5.2744   5.4815
     5.7273   6.3083   7.2836   7.8208   8.8294

     occupation numbers 
     1.0000   1.0000   1.0000   1.0000   1.0000   1.0000   1.0000   1.0000
     1.0000   1.0000   1.0000   1.0000   1.0000   1.0000   1.0000   1.0000
     1.0000   1.0000   1.0000   1.0000   1.0000   1.0000   1.0000   1.0000
     1.0000   1.0000   1.0000   1.0000   1.0000   1.0000   1.0000   1.0000
     1.0000   1.0000   1.0000   1.0000   1.0000   1.0000   1.0000   1.0000
     1.0000   1.0000   1.0000   0.0000   0.0000   0.0000   0.0000   0.0000
     0.0000   0.0000   0.0000   0.0000   0.0000

          k =-0.1447-0.0119 0.0000 ( 13885 PWs)   bands (ev):

   -71.0385 -58.5563 -35.6530 -35.5505 -35.4469 -34.4010 -34.3881 -34.3675
   -34.3651 -34.3360 -34.3356 -34.2860 -34.2608 -34.2160 -34.1960 -32.8146
   -32.7354 -32.6682 -25.2876 -25.2844 -25.2835 -25.2797 -25.2769 -25.2177
   -25.2157 -10.5835 -10.3486  -9.2743  -8.8299  -3.4865  -3.0764  -2.7473
    -2.5684  -1.7424  -1.4288  -1.2811  -1.0422  -0.6758  -0.4300   0.5168
     0.8544   1.6601   1.9992   3.8184   4.3682   4.7068   4.9712   5.1786
     5.5535   6.4275   7.5733   8.4323   9.3413

     occupation numbers 
     1.0000   1.0000   1.0000   1.0000   1.0000   1.0000   1.0000   1.0000
     1.0000   1.0000   1.0000   1.0000   1.0000   1.0000   1.0000   1.0000
     1.0000   1.0000   1.0000   1.0000   1.0000   1.0000   1.0000   1.0000
     1.0000   1.0000   1.0000   1.0000   1.0000   1.0000   1.0000   1.0000
     1.0000   1.0000   1.0000   1.0000   1.0000   1.0000   1.0000   1.0000
     1.0000   1.0000   1.0000   0.0000   0.0000   0.0000   0.0000   0.0000
     0.0000   0.0000   0.0000   0.0000   0.0000

          k =-0.1447 0.0119 0.0000 ( 13885 PWs)   bands (ev):

   -71.0385 -58.5563 -35.6530 -35.5505 -35.4469 -34.4010 -34.3881 -34.3675
   -34.3651 -34.3360 -34.3356 -34.2860 -34.2608 -34.2160 -34.1960 -32.8146
   -32.7354 -32.6682 -25.2876 -25.2844 -25.2835 -25.2797 -25.2769 -25.2177
   -25.2157 -10.5835 -10.3486  -9.2743  -8.8299  -3.4865  -3.0764  -2.7473
    -2.5684  -1.7424  -1.4288  -1.2811  -1.0422  -0.6758  -0.4300   0.5168
     0.8544   1.6601   1.9992   3.8184   4.3682   4.7068   4.9712   5.1786
     5.5535   6.4275   7.5733   8.4323   9.3413

     occupation numbers 
     1.0000   1.0000   1.0000   1.0000   1.0000   1.0000   1.0000   1.0000
     1.0000   1.0000   1.0000   1.0000   1.0000   1.0000   1.0000   1.0000
     1.0000   1.0000   1.0000   1.0000   1.0000   1.0000   1.0000   1.0000
     1.0000   1.0000   1.0000   1.0000   1.0000   1.0000   1.0000   1.0000
     1.0000   1.0000   1.0000   1.0000   1.0000   1.0000   1.0000   1.0000
     1.0000   1.0000   1.0000   0.0000   0.0000   0.0000   0.0000   0.0000
     0.0000   0.0000   0.0000   0.0000   0.0000

          k =-0.1447 0.0358 0.0000 ( 13901 PWs)   bands (ev):

   -71.0384 -58.5560 -35.6541 -35.5641 -35.4370 -34.4099 -34.3887 -34.3676
   -34.3571 -34.3364 -34.3323 -34.2852 -34.2580 -34.2164 -34.1964 -32.8363
   -32.7347 -32.6494 -25.2880 -25.2842 -25.2840 -25.2790 -25.2768 -25.2176
   -25.2158 -10.5496 -10.3367  -9.1893  -8.7945  -3.9164  -3.3434  -3.0636
    -2.6888  -1.8511  -1.5897  -1.0195  -0.8103   0.0528   0.1930   0.3407
     0.6969   1.6978   2.1103   3.9984   4.4749   4.6808   5.2744   5.4815
     5.7273   6.3083   7.2836   7.8208   8.8294

     occupation numbers 
     1.0000   1.0000   1.0000   1.0000   1.0000   1.0000   1.0000   1.0000
     1.0000   1.0000   1.0000   1.0000   1.0000   1.0000   1.0000   1.0000
     1.0000   1.0000   1.0000   1.0000   1.0000   1.0000   1.0000   1.0000
     1.0000   1.0000   1.0000   1.0000   1.0000   1.0000   1.0000   1.0000
     1.0000   1.0000   1.0000   1.0000   1.0000   1.0000   1.0000   1.0000
[...]
     1.0000   1.0000   1.0000   1.0000   1.0000   1.0000   1.0000   1.0000
     1.0000   1.0000   1.0000   0.0000   0.0000   0.0000   0.0000   0.0000
     0.0000   0.0000   0.0000   0.0000   0.0000

          k = 0.1241 0.2387 0.0000 ( 13914 PWs)   bands (ev):

   -71.0373 -58.5535 -35.6613 -35.5818 -35.4452 -34.4133 -34.3883 -34.3651
   -34.3543 -34.3382 -34.3316 -34.2827 -34.2556 -34.2147 -34.1840 -32.8579
   -32.7291 -32.6585 -25.2885 -25.2844 -25.2843 -25.2785 -25.2766 -25.2170
   -25.2164 -10.3390 -10.2180  -8.7063  -8.5360  -4.4685  -3.5841  -3.5073
    -2.9702  -1.8750  -1.6548  -0.9511  -0.8214   0.0401   0.1694   0.3232
     0.4779   1.8592   2.1260   4.2158   4.7106   4.9369   5.4100   5.5443
     5.8493   6.1907   6.9738   7.3808   8.1328

     occupation numbers 
     1.0000   1.0000   1.0000   1.0000   1.0000   1.0000   1.0000   1.0000
     1.0000   1.0000   1.0000   1.0000   1.0000   1.0000   1.0000   1.0000
     1.0000   1.0000   1.0000   1.0000   1.0000   1.0000   1.0000   1.0000
     1.0000   1.0000   1.0000   1.0000   1.0000   1.0000   1.0000   1.0000
     1.0000   1.0000   1.0000   1.0000   1.0000   1.0000   1.0000   1.0000
     1.0000   1.0000   1.0000   0.0000   0.0000   0.0000   0.0000   0.0000
     0.0000   0.0000   0.0000   0.0000   0.0000

          k = 0.1447-0.0836 0.0000 ( 13932 PWs)   bands (ev):

   -71.0378 -58.5548 -35.6581 -35.5901 -35.4248 -34.4222 -34.3913 -34.3653
   -34.3449 -34.3387 -34.3271 -34.2830 -34.2518 -34.2171 -34.1939 -32.8747
   -32.7320 -32.6246 -25.2888 -25.2851 -25.2836 -25.2780 -25.2766 -25.2172
   -25.2160 -10.4283 -10.2831  -8.8781  -8.6578  -4.7287  -3.8296  -3.5665
    -2.9278  -1.9720  -1.7581  -0.6652  -0.2302  -0.0931   0.4001   1.1503
     1.3735   1.6069   2.5939   4.2893   4.6160   4.7801   5.1734   5.7700
     6.3731   6.5883   6.8666   7.6771   7.8516

     occupation numbers 
     1.0000   1.0000   1.0000   1.0000   1.0000   1.0000   1.0000   1.0000
     1.0000   1.0000   1.0000   1.0000   1.0000   1.0000   1.0000   1.0000
     1.0000   1.0000   1.0000   1.0000   1.0000   1.0000   1.0000   1.0000
     1.0000   1.0000   1.0000   1.0000   1.0000   1.0000   1.0000   1.0000
     1.0000   1.0000   1.0000   1.0000   1.0000   1.0000   1.0000   1.0000
     1.0000   1.0000   1.0000   0.0000   0.0000   0.0000   0.0000   0.0000
     0.0000   0.0000   0.0000   0.0000   0.0000

          k = 0.1447-0.0597 0.0000 ( 13929 PWs)   bands (ev):

   -71.0381 -58.5554 -35.6560 -35.5800 -35.4274 -34.4183 -34.3903 -34.3667
   -34.3490 -34.3374 -34.3287 -34.2841 -34.2542 -34.2170 -34.1961 -32.8605
   -32.7335 -32.6309 -25.2885 -25.2848 -25.2837 -25.2783 -25.2767 -25.2174
   -25.2158 -10.4921 -10.3140  -9.0417  -8.7322  -4.4109  -3.6514  -3.3735
    -2.8292  -1.9424  -1.7086  -0.7463  -0.4351   0.0635   0.4837   0.8132
     0.9254   1.7047   2.3601   4.2163   4.5551   4.7198   5.2803   5.7158
     6.1286   6.6230   7.0433   7.2142   8.2417

     occupation numbers 
     1.0000   1.0000   1.0000   1.0000   1.0000   1.0000   1.0000   1.0000
     1.0000   1.0000   1.0000   1.0000   1.0000   1.0000   1.0000   1.0000
     1.0000   1.0000   1.0000   1.0000   1.0000   1.0000   1.0000   1.0000
     1.0000   1.0000   1.0000   1.0000   1.0000   1.0000   1.0000   1.0000
     1.0000   1.0000   1.0000   1.0000   1.0000   1.0000   1.0000   1.0000
     1.0000   1.0000   1.0000   0.0000   0.0000   0.0000   0.0000   0.0000
     0.0000   0.0000   0.0000   0.0000   0.0000

          k = 0.1447-0.0358 0.0000 ( 13901 PWs)   bands (ev):

   -71.0384 -58.5560 -35.6541 -35.5641 -35.4370 -34.4099 -34.3887 -34.3676
   -34.3571 -34.3364 -34.3323 -34.2852 -34.2580 -34.2164 -34.1964 -32.8363
   -32.7347 -32.6494 -25.2880 -25.2842 -25.2840 -25.2790 -25.2768 -25.2176
   -25.2158 -10.5496 -10.3367  -9.1893  -8.7945  -3.9164  -3.3434  -3.0636
    -2.6888  -1.8511  -1.5897  -1.0195  -0.8103   0.0528   0.1930   0.3407
     0.6969   1.6978   2.1103   3.9984   4.4749   4.6808   5.2744   5.4815
     5.7273   6.3083   7.2836   7.8208   8.8294

     occupation numbers 
     1.0000   1.0000   1.0000   1.0000   1.0000   1.0000   1.0000   1.0000
     1.0000   1.0000   1.0000   1.0000   1.0000   1.0000   1.0000   1.0000
     1.0000   1.0000   1.0000   1.0000   1.0000   1.0000   1.0000   1.0000
     1.0000   1.0000   1.0000   1.0000   1.0000   1.0000   1.0000   1.0000
     1.0000   1.0000   1.0000   1.0000   1.0000   1.0000   1.0000   1.0000
     1.0000   1.0000   1.0000   0.0000   0.0000   0.0000   0.0000   0.0000
     0.0000   0.0000   0.0000   0.0000   0.0000

          k = 0.1447-0.0119 0.0000 ( 13885 PWs)   bands (ev):

   -71.0385 -58.5563 -35.6530 -35.5505 -35.4469 -34.4010 -34.3881 -34.3675
   -34.3651 -34.3360 -34.3356 -34.2860 -34.2608 -34.2160 -34.1960 -32.8146
   -32.7354 -32.6682 -25.2876 -25.2844 -25.2835 -25.2797 -25.2769 -25.2177
   -25.2157 -10.5835 -10.3486  -9.2743  -8.8299  -3.4865  -3.0764  -2.7473
    -2.5684  -1.7424  -1.4288  -1.2811  -1.0422  -0.6758  -0.4300   0.5168
     0.8544   1.6601   1.9992   3.8184   4.3682   4.7068   4.9712   5.1786
     5.5535   6.4275   7.5733   8.4323   9.3413

     occupation numbers 
     1.0000   1.0000   1.0000   1.0000   1.0000   1.0000   1.0000   1.0000
     1.0000   1.0000   1.0000   1.0000   1.0000   1.0000   1.0000   1.0000
     1.0000   1.0000   1.0000   1.0000   1.0000   1.0000   1.0000   1.0000
     1.0000   1.0000   1.0000   1.0000   1.0000   1.0000   1.0000   1.0000
     1.0000   1.0000   1.0000   1.0000   1.0000   1.0000   1.0000   1.0000
     1.0000   1.0000   1.0000   0.0000   0.0000   0.0000   0.0000   0.0000
     0.0000   0.0000   0.0000   0.0000   0.0000

          k = 0.1447 0.0119 0.0000 ( 13885 PWs)   bands (ev):

   -71.0385 -58.5563 -35.6530 -35.5505 -35.4469 -34.4010 -34.3881 -34.3675
   -34.3651 -34.3360 -34.3356 -34.2860 -34.2608 -34.2160 -34.1960 -32.8146
   -32.7354 -32.6682 -25.2876 -25.2844 -25.2835 -25.2797 -25.2769 -25.2177
   -25.2157 -10.5835 -10.3486  -9.2743  -8.8299  -3.4865  -3.0764  -2.7473
    -2.5684  -1.7424  -1.4288  -1.2811  -1.0422  -0.6758  -0.4300   0.5168
     0.8544   1.6601   1.9992   3.8184   4.3682   4.7068   4.9712   5.1786
     5.5535   6.4275   7.5733   8.4323   9.3413

     occupation numbers 
     1.0000   1.0000   1.0000   1.0000   1.0000   1.0000   1.0000   1.0000
     1.0000   1.0000   1.0000   1.0000   1.0000   1.0000   1.0000   1.0000
     1.0000   1.0000   1.0000   1.0000   1.0000   1.0000   1.0000   1.0000
     1.0000   1.0000   1.0000   1.0000   1.0000   1.0000   1.0000   1.0000
     1.0000   1.0000   1.0000   1.0000   1.0000   1.0000   1.0000   1.0000
     1.0000   1.0000   1.0000   0.0000   0.0000   0.0000   0.0000   0.0000
     0.0000   0.0000   0.0000   0.0000   0.0000

          k = 0.1447 0.0358 0.0000 ( 13901 PWs)   bands (ev):

   -71.0384 -58.5560 -35.6541 -35.5641 -35.4370 -34.4099 -34.3887 -34.3676
   -34.3571 -34.3364 -34.3323 -34.2852 -34.2580 -34.2164 -34.1964 -32.8363
   -32.7347 -32.6494 -25.2880 -25.2842 -25.2840 -25.2790 -25.2768 -25.2176
   -25.2158 -10.5496 -10.3367  -9.1893  -8.7945  -3.9164  -3.3434  -3.0636
    -2.6888  -1.8511  -1.5897  -1.0195  -0.8103   0.0528   0.1930   0.3407
     0.6969   1.6978   2.1103   3.9984   4.4749   4.6808   5.2744   5.4815
     5.7273   6.3083   7.2836   7.8208   8.8294

     occupation numbers 
     1.0000   1.0000   1.0000   1.0000   1.0000   1.0000   1.0000   1.0000
     1.0000   1.0000   1.0000   1.0000   1.0000   1.0000   1.0000   1.0000
     1.0000   1.0000   1.0000   1.0000   1.0000   1.0000   1.0000   1.0000
     1.0000   1.0000   1.0000   1.0000   1.0000   1.0000   1.0000   1.0000
     1.0000   1.0000   1.0000   1.0000   1.0000   1.0000   1.0000   1.0000
     1.0000   1.0000   1.0000   0.0000   0.0000   0.0000   0.0000   0.0000
     0.0000   0.0000   0.0000   0.0000   0.0000

          k = 0.1447 0.0597 0.0000 ( 13929 PWs)   bands (ev):

   -71.0381 -58.5554 -35.6560 -35.5800 -35.4274 -34.4183 -34.3903 -34.3667
   -34.3490 -34.3374 -34.3287 -34.2841 -34.2542 -34.2170 -34.1961 -32.8605
   -32.7335 -32.6309 -25.2885 -25.2848 -25.2837 -25.2783 -25.2767 -25.2174
   -25.2158 -10.4921 -10.3140  -9.0417  -8.7322  -4.4109  -3.6514  -3.3735
    -2.8292  -1.9424  -1.7086  -0.7463  -0.4351   0.0635   0.4837   0.8132
     0.9254   1.7047   2.3601   4.2163   4.5551   4.7198   5.2803   5.7158
     6.1286   6.6230   7.0433   7.2142   8.2417

     occupation numbers 
     1.0000   1.0000   1.0000   1.0000   1.0000   1.0000   1.0000   1.0000
     1.0000   1.0000   1.0000   1.0000   1.0000   1.0000   1.0000   1.0000
     1.0000   1.0000   1.0000   1.0000   1.0000   1.0000   1.0000   1.0000
     1.0000   1.0000   1.0000   1.0000   1.0000   1.0000   1.0000   1.0000
     1.0000   1.0000   1.0000   1.0000   1.0000   1.0000   1.0000   1.0000
     1.0000   1.0000   1.0000   0.0000   0.0000   0.0000   0.0000   0.0000
     0.0000   0.0000   0.0000   0.0000   0.0000

          k = 0.1447 0.0836 0.0000 ( 13932 PWs)   bands (ev):

   -71.0378 -58.5548 -35.6581 -35.5901 -35.4248 -34.4222 -34.3913 -34.3653
   -34.3449 -34.3387 -34.3271 -34.2830 -34.2518 -34.2171 -34.1939 -32.8747
   -32.7320 -32.6246 -25.2888 -25.2851 -25.2836 -25.2780 -25.2766 -25.2172
   -25.2160 -10.4283 -10.2831  -8.8781  -8.6578  -4.7287  -3.8296  -3.5665
    -2.9278  -1.9720  -1.7581  -0.6652  -0.2302  -0.0931   0.4001   1.1503
     1.3735   1.6069   2.5939   4.2893   4.6160   4.7801   5.1734   5.7700
     6.3731   6.5883   6.8666   7.6771   7.8516

     occupation numbers 
     1.0000   1.0000   1.0000   1.0000   1.0000   1.0000   1.0000   1.0000
     1.0000   1.0000   1.0000   1.0000   1.0000   1.0000   1.0000   1.0000
     1.0000   1.0000   1.0000   1.0000   1.0000   1.0000   1.0000   1.0000
     1.0000   1.0000   1.0000   1.0000   1.0000   1.0000   1.0000   1.0000
     1.0000   1.0000   1.0000   1.0000   1.0000   1.0000   1.0000   1.0000
     1.0000   1.0000   1.0000   0.0000   0.0000   0.0000   0.0000   0.0000
     0.0000   0.0000   0.0000   0.0000   0.0000

          k = 0.1447 0.1074 0.0000 ( 13940 PWs)   bands (ev):

   -71.0375 -58.5541 -35.6600 -35.5906 -35.4311 -34.4203 -34.3904 -34.3650
   -34.3473 -34.3384 -34.3282 -34.2825 -34.2525 -34.2162 -34.1895 -32.8737
   -32.7305 -32.6344 -25.2888 -25.2850 -25.2838 -25.2781 -25.2765 -25.2170
   -25.2163 -10.3745 -10.2489  -8.7566  -8.5882  -4.7542  -3.8068  -3.6096
    -2.9720  -1.9439  -1.7331  -0.7639  -0.4532  -0.0197   0.4114   0.9387
     1.0060   1.7896   2.3782   4.2815   4.7178   4.8860   5.2745   5.8596
     6.0934   6.6612   6.8612   6.9312   7.8295

     occupation numbers 
     1.0000   1.0000   1.0000   1.0000   1.0000   1.0000   1.0000   1.0000
     1.0000   1.0000   1.0000   1.0000   1.0000   1.0000   1.0000   1.0000
     1.0000   1.0000   1.0000   1.0000   1.0000   1.0000   1.0000   1.0000
     1.0000   1.0000   1.0000   1.0000   1.0000   1.0000   1.0000   1.0000
     1.0000   1.0000   1.0000   1.0000   1.0000   1.0000   1.0000   1.0000
     1.0000   1.0000   1.0000   0.0000   0.0000   0.0000   0.0000   0.0000
     0.0000   0.0000   0.0000   0.0000   0.0000

          k = 0.1447 0.1313 0.0000 ( 13914 PWs)   bands (ev):

   -71.0373 -58.5535 -35.6613 -35.5818 -35.4452 -34.4133 -34.3883 -34.3651
   -34.3543 -34.3382 -34.3316 -34.2827 -34.2556 -34.2147 -34.1840 -32.8579
   -32.7291 -32.6585 -25.2885 -25.2844 -25.2843 -25.2785 -25.2766 -25.2170
   -25.2164 -10.3390 -10.2180  -8.7063  -8.5360  -4.4685  -3.5841  -3.5073
    -2.9702  -1.8750  -1.6548  -0.9511  -0.8214   0.0401   0.1694   0.3232
     0.4779   1.8592   2.1260   4.2158   4.7106   4.9369   5.4100   5.5443
     5.8493   6.1907   6.9738   7.3808   8.1328

     occupation numbers 
     1.0000   1.0000   1.0000   1.0000   1.0000   1.0000   1.0000   1.0000
     1.0000   1.0000   1.0000   1.0000   1.0000   1.0000   1.0000   1.0000
     1.0000   1.0000   1.0000   1.0000   1.0000   1.0000   1.0000   1.0000
     1.0000   1.0000   1.0000   1.0000   1.0000   1.0000   1.0000   1.0000
     1.0000   1.0000   1.0000   1.0000   1.0000   1.0000   1.0000   1.0000
     1.0000   1.0000   1.0000   0.0000   0.0000   0.0000   0.0000   0.0000
     0.0000   0.0000   0.0000   0.0000   0.0000

          k = 0.1447 0.1552 0.0000 ( 13894 PWs)   bands (ev):

   -71.0371 -58.5530 -35.6620 -35.5682 -35.4619 -34.4033 -34.3868 -34.3646
   -34.3625 -34.3383 -34.3362 -34.2832 -34.2588 -34.2136 -34.1794 -32.8338
   -32.7282 -32.6885 -25.2880 -25.2848 -25.2836 -25.2792 -25.2767 -25.2172
   -25.2164 -10.3211 -10.1967  -8.7038  -8.5057  -3.9933  -3.3276  -3.2444
    -2.9441  -1.7914  -1.5910  -1.2479  -1.0649  -0.6775  -0.5098   0.1870
     0.5455   1.8587   2.0386   4.0835   4.5630   4.9392   4.9966   5.1656
     5.7291   6.4283   7.4679   7.9224   8.6548

     occupation numbers 
     1.0000   1.0000   1.0000   1.0000   1.0000   1.0000   1.0000   1.0000
     1.0000   1.0000   1.0000   1.0000   1.0000   1.0000   1.0000   1.0000
     1.0000   1.0000   1.0000   1.0000   1.0000   1.0000   1.0000   1.0000
     1.0000   1.0000   1.0000   1.0000   1.0000   1.0000   1.0000   1.0000
     1.0000   1.0000   1.0000   1.0000   1.0000   1.0000   1.0000   1.0000
     1.0000   1.0000   1.0000   0.0000   0.0000   0.0000   0.0000   0.0000
     0.0000   0.0000   0.0000   0.0000   0.0000

          k = 0.1447 0.1791 0.0000 ( 13889 PWs)   bands (ev):

   -71.0370 -58.5529 -35.6622 -35.5607 -35.4705 -34.3972 -34.3865 -34.3695
   -34.3618 -34.3387 -34.3385 -34.2835 -34.2601 -34.2131 -34.1777 -32.8197
   -32.7279 -32.7047 -25.2877 -25.2851 -25.2831 -25.2796 -25.2767 -25.2173
   -25.2164 -10.3161 -10.1890  -8.7088  -8.4960  -3.7045  -3.2210  -3.0591
    -2.9229  -1.7320  -1.6500  -1.3184  -1.1652  -1.0632  -0.9217   0.2310
     0.5842   1.8532   2.0192   4.0138   4.4699   4.7986   4.8870   5.0362
     5.7663   6.5595   7.8038   8.1972   8.9210

     occupation numbers 
     1.0000   1.0000   1.0000   1.0000   1.0000   1.0000   1.0000   1.0000
     1.0000   1.0000   1.0000   1.0000   1.0000   1.0000   1.0000   1.0000
     1.0000   1.0000   1.0000   1.0000   1.0000   1.0000   1.0000   1.0000
     1.0000   1.0000   1.0000   1.0000   1.0000   1.0000   1.0000   1.0000
     1.0000   1.0000   1.0000   1.0000   1.0000   1.0000   1.0000   1.0000
     1.0000   1.0000   1.0000   0.0000   0.0000   0.0000   0.0000   0.0000
     0.0000   0.0000   0.0000   0.0000   0.0000

          k = 0.1447 0.2029 0.0000 ( 13894 PWs)   bands (ev):

   -71.0371 -58.5530 -35.6620 -35.5682 -35.4619 -34.4033 -34.3868 -34.3646
   -34.3625 -34.3383 -34.3362 -34.2832 -34.2588 -34.2136 -34.1794 -32.8338
   -32.7282 -32.6885 -25.2880 -25.2848 -25.2836 -25.2792 -25.2767 -25.2172
   -25.2164 -10.3211 -10.1967  -8.7038  -8.5057  -3.9933  -3.3276  -3.2444
    -2.9441  -1.7914  -1.5910  -1.2479  -1.0649  -0.6775  -0.5098   0.1870
     0.5455   1.8587   2.0386   4.0835   4.5630   4.9392   4.9966   5.1656
     5.7291   6.4283   7.4679   7.9224   8.6548

     occupation numbers 
     1.0000   1.0000   1.0000   1.0000   1.0000   1.0000   1.0000   1.0000
     1.0000   1.0000   1.0000   1.0000   1.0000   1.0000   1.0000   1.0000
     1.0000   1.0000   1.0000   1.0000   1.0000   1.0000   1.0000   1.0000
     1.0000   1.0000   1.0000   1.0000   1.0000   1.0000   1.0000   1.0000
     1.0000   1.0000   1.0000   1.0000   1.0000   1.0000   1.0000   1.0000
     1.0000   1.0000   1.0000   0.0000   0.0000   0.0000   0.0000   0.0000
     0.0000   0.0000   0.0000   0.0000   0.0000

          k = 0.1447 0.2268 0.0000 ( 13914 PWs)   bands (ev):

   -71.0373 -58.5535 -35.6613 -35.5818 -35.4452 -34.4133 -34.3883 -34.3651
   -34.3543 -34.3382 -34.3316 -34.2827 -34.2556 -34.2147 -34.1840 -32.8579
   -32.7291 -32.6585 -25.2885 -25.2844 -25.2843 -25.2785 -25.2766 -25.2170
   -25.2164 -10.3390 -10.2180  -8.7063  -8.5360  -4.4685  -3.5841  -3.5073
    -2.9702  -1.8750  -1.6548  -0.9511  -0.8214   0.0401   0.1694   0.3232
     0.4779   1.8592   2.1260   4.2158   4.7106   4.9369   5.4100   5.5443
     5.8493   6.1907   6.9738   7.3808   8.1328

     occupation numbers 
     1.0000   1.0000   1.0000   1.0000   1.0000   1.0000   1.0000   1.0000
     1.0000   1.0000   1.0000   1.0000   1.0000   1.0000   1.0000   1.0000
     1.0000   1.0000   1.0000   1.0000   1.0000   1.0000   1.0000   1.0000
     1.0000   1.0000   1.0000   1.0000   1.0000   1.0000   1.0000   1.0000
     1.0000   1.0000   1.0000   1.0000   1.0000   1.0000   1.0000   1.0000
     1.0000   1.0000   1.0000   0.0000   0.0000   0.0000   0.0000   0.0000
     0.0000   0.0000   0.0000   0.0000   0.0000

          k = 0.1447 0.2507 0.0000 ( 13940 PWs)   bands (ev):

   -71.0375 -58.5541 -35.6600 -35.5906 -35.4311 -34.4203 -34.3904 -34.3650
   -34.3473 -34.3384 -34.3282 -34.2825 -34.2525 -34.2162 -34.1895 -32.8737
   -32.7305 -32.6344 -25.2888 -25.2850 -25.2838 -25.2781 -25.2765 -25.2170
   -25.2163 -10.3745 -10.2489  -8.7566  -8.5882  -4.7542  -3.8068  -3.6096
    -2.9720  -1.9439  -1.7331  -0.7639  -0.4532  -0.0197   0.4114   0.9387
     1.0060   1.7896   2.3782   4.2815   4.7178   4.8860   5.2745   5.8596
     6.0934   6.6612   6.8612   6.9312   7.8295

     occupation numbers 
     1.0000   1.0000   1.0000   1.0000   1.0000   1.0000   1.0000   1.0000
     1.0000   1.0000   1.0000   1.0000   1.0000   1.0000   1.0000   1.0000
     1.0000   1.0000   1.0000   1.0000   1.0000   1.0000   1.0000   1.0000
     1.0000   1.0000   1.0000   1.0000   1.0000   1.0000   1.0000   1.0000
     1.0000   1.0000   1.0000   1.0000   1.0000   1.0000   1.0000   1.0000
     1.0000   1.0000   1.0000   0.0000   0.0000   0.0000   0.0000   0.0000
     0.0000   0.0000   0.0000   0.0000   0.0000

     highest occupied, lowest unoccupied level (ev):     2.5939    3.5876

     Writing all to output data dir ./calc.save/

     init_run     :      0.33s CPU      0.33s WALL (       1 calls)
     electrons    :   2279.02s CPU    761.23s WALL (       1 calls)

     Called by init_run:
     wfcinit      :      0.00s CPU      0.00s WALL (       1 calls)
     wfcinit:wfcr :     16.74s CPU      7.76s WALL (     225 calls)
     potinit      :      0.01s CPU      0.01s WALL (       1 calls)
     hinit0       :      0.28s CPU      0.28s WALL (       1 calls)

     Called by electrons:
     c_bands      :   2278.99s CPU    761.21s WALL (       1 calls)
     v_of_rho     :      0.01s CPU      0.01s WALL (       1 calls)
     v_h          :      0.00s CPU      0.00s WALL (       1 calls)
     v_xc         :      0.01s CPU      0.01s WALL (       1 calls)

     Called by c_bands:
     init_us_2    :      1.30s CPU      0.29s WALL (     225 calls)
     init_us_2:cp :      1.30s CPU      0.28s WALL (     225 calls)
     cegterg      :   2244.33s CPU    742.76s WALL (     672 calls)

     Called by sum_band:

     Called by *egterg:
     cdiaghg      :   1312.57s CPU    438.33s WALL (   11626 calls)
     cegterg:over :    102.26s CPU     44.95s WALL (   11401 calls)
     cegterg:upda :    120.24s CPU     15.81s WALL (   11401 calls)
     cegterg:last :    107.87s CPU     16.54s WALL (    6228 calls)
     h_psi        :    533.06s CPU    192.72s WALL (   12298 calls)
     g_psi        :     24.70s CPU     14.86s WALL (   11401 calls)

     Called by h_psi:
     h_psi:calbec :     35.01s CPU     21.91s WALL (   12298 calls)
     vloc_psi     :    350.60s CPU    136.45s WALL (   12298 calls)
     add_vuspsi   :    121.08s CPU     26.77s WALL (   12298 calls)

     General routines
     calbec       :     34.69s CPU     21.69s WALL (   12298 calls)
     fft          :      0.06s CPU      0.06s WALL (      10 calls)
     fftw         :    329.18s CPU    128.06s WALL (  698848 calls)
     davcio       :      0.81s CPU      1.38s WALL (     450 calls)

     Parallel routines

     PWSCF        :  38m 2.78s CPU  12m51.51s WALL


   This run was terminated on:  17:34:16  29Jun2023            

=------------------------------------------------------------------------------=
   JOB DONE.
=------------------------------------------------------------------------------=
