
     Program PWSCF v.7.1 starts on 28Jun2023 at 11:38:33 

     This program is part of the open-source Quantum ESPRESSO suite
     for quantum simulation of materials; please cite
         "P. Giannozzi et al., J. Phys.:Condens. Matter 21 395502 (2009);
         "P. Giannozzi et al., J. Phys.:Condens. Matter 29 465901 (2017);
         "P. Giannozzi et al., J. Chem. Phys. 152 154105 (2020);
          URL http://www.quantum-espresso.org", 
     in publications or presentations arising from this work. More details at
     http://www.quantum-espresso.org/quote

     Parallel version (MPI), running on    42 processors

     MPI processes distributed on     1 nodes
     573481 MiB available memory on the printing compute node when the environment starts

     Waiting for input...
     Reading input from standard input

     Current dimensions of program PWSCF are:
     Max number of different atomic species (ntypx) = 10
     Max number of k-points (npk) =  40000
     Max angular momentum in pseudopotentials (lmaxx) =  4
     Message from routine cell_base_init:
     DEPRECATED: use true lattice parameter, not A to a.u. conversion factor

     IMPORTANT: XC functional enforced from input :
     Exchange-correlation= PBE
                           (   1   4   3   4   0   0   0)
     Any further DFT definition will be discarded
     Please, verify this is what you really want

     Message from routine setup:
     using ibrav=0 with symmetry is DISCOURAGED, use correct ibrav instead

     R & G space division:  proc/nbgrp/npool/nimage =      42
     Subspace diagonalization in iterative solution of the eigenvalue problem:
     a serial algorithm will be used


     Parallelization info
     --------------------
     sticks:   dense  smooth     PW     G-vecs:    dense   smooth      PW
     Min          11      11      3                 2511     2511     401
     Max          12      12      4                 2566     2566     448
     Sum         499     499    151               107081   107081   17835

     Using Slab Decomposition



     bravais-lattice index     =            0
     lattice parameter (alat)  =       1.8897  a.u.
     unit-cell volume          =    2235.1947 (a.u.)^3
     number of atoms/cell      =            6
     number of atomic types    =            3
     number of electrons       =        52.00
     number of Kohn-Sham states=           36
     kinetic-energy cutoff     =      50.0000  Ry
     charge density cutoff     =     199.9999  Ry
     scf convergence threshold =      7.3E-08
     mixing beta               =       0.7000
     number of iterations used =            8  plain     mixing
     Exchange-correlation= PBE
                           (   1   4   3   4   0   0   0)

     celldm(1)=   1.889726  celldm(2)=   0.000000  celldm(3)=   0.000000
     celldm(4)=   0.000000  celldm(5)=   0.000000  celldm(6)=   0.000000

     crystal axes: (cart. coord. in units of alat)
               a(1) = (   3.175640   0.000000   0.000000 )  
               a(2) = (  -1.587820   2.750185   0.000000 )  
               a(3) = (   0.000000   0.000000  37.925000 )  

     reciprocal axes: (cart. coord. in units 2 pi/alat)
               b(1) = (  0.314897  0.181806 -0.000000 )  
               b(2) = (  0.000000  0.363612  0.000000 )  
               b(3) = (  0.000000 -0.000000  0.026368 )  


     PseudoPot. # 1 for Mo read from file:
     /ccs/home/dpalmer3/qe-7.1/pseudo/Mo.UPF
     MD5 check sum: e75ed155aa411dd1617a1e98b4cfb1d3
     Pseudo is Norm-conserving, Zval = 14.0
     Generated using ONCVPSP code by D. R. Hamann
     Using radial grid of  602 points,  6 beta functions with: 
                l(1) =   0
                l(2) =   0
                l(3) =   1
                l(4) =   1
                l(5) =   2
                l(6) =   2

     PseudoPot. # 2 for S  read from file:
     /ccs/home/dpalmer3/qe-7.1/pseudo/S.UPF
     MD5 check sum: bb66adc3f78a1ab6d878b9658eae71a4
     Pseudo is Norm-conserving, Zval =  6.0
     Generated using ONCVPSP code by D. R. Hamann
     Using radial grid of  602 points,  4 beta functions with: 
                l(1) =   0
                l(2) =   0
                l(3) =   1
                l(4) =   1

     PseudoPot. # 3 for Se read from file:
     /ccs/home/dpalmer3/qe-7.1/pseudo/Se.UPF
     MD5 check sum: e78e48a4f5d8ce1f8dc76ec1271f249c
     Pseudo is Norm-conserving, Zval =  6.0
     Generated using ONCVPSP code by D. R. Hamann
     Using radial grid of  602 points,  6 beta functions with: 
                l(1) =   0
                l(2) =   0
                l(3) =   1
                l(4) =   1
                l(5) =   2
                l(6) =   2

     atomic species   valence    mass     pseudopotential
        Mo1           14.00    95.95000     Mo( 1.00)
        S1             6.00    32.06000     S ( 1.00)
        Se1            6.00    78.97100     Se( 1.00)

      6 Sym. Ops. (no inversion) found



   Cartesian axes

     site n.     atom                  positions (alat units)
         1           Mo1 tau(   1) = (   0.0000000   0.0000000  11.5850000  )
         2           S1  tau(   2) = (   1.5878200   0.9167283  13.1700000  )
         3           S1  tau(   3) = (   1.5878200   0.9167283  10.0000000  )
         4           Mo1 tau(   4) = (   1.5878200   0.9167283  17.9250000  )
         5           Se1 tau(   5) = (  -0.0000000   1.8334566  19.5900000  )
         6           Se1 tau(   6) = (  -0.0000000   1.8334566  16.2600000  )

     number of k points=    27
                       cart. coord. in units 2pi/alat
        k(    1) = (   0.0000000   0.0000000   0.0000000), wk =   0.0088889
        k(    2) = (   0.0000000   0.0242408   0.0000000), wk =   0.0533333
        k(    3) = (   0.0000000   0.0484816   0.0000000), wk =   0.0533333
        k(    4) = (   0.0000000   0.0727224   0.0000000), wk =   0.0533333
        k(    5) = (   0.0000000   0.0969632   0.0000000), wk =   0.0533333
        k(    6) = (   0.0000000   0.1212040   0.0000000), wk =   0.0533333
        k(    7) = (   0.0000000   0.1454448   0.0000000), wk =   0.0533333
        k(    8) = (   0.0000000   0.1696856   0.0000000), wk =   0.0533333
        k(    9) = (   0.0209931   0.0363612   0.0000000), wk =   0.0533333
        k(   10) = (   0.0209931   0.0606020   0.0000000), wk =   0.1066667
        k(   11) = (   0.0209931   0.0848428   0.0000000), wk =   0.1066667
        k(   12) = (   0.0209931   0.1090836   0.0000000), wk =   0.1066667
        k(   13) = (   0.0209931   0.1333244   0.0000000), wk =   0.1066667
        k(   14) = (   0.0209931   0.1575652   0.0000000), wk =   0.1066667
        k(   15) = (   0.0209931   0.1818060   0.0000000), wk =   0.0533333
        k(   16) = (   0.0419863   0.0727224   0.0000000), wk =   0.0533333
        k(   17) = (   0.0419863   0.0969632   0.0000000), wk =   0.1066667
        k(   18) = (   0.0419863   0.1212040   0.0000000), wk =   0.1066667
        k(   19) = (   0.0419863   0.1454448   0.0000000), wk =   0.1066667
        k(   20) = (   0.0419863   0.1696856   0.0000000), wk =   0.1066667
        k(   21) = (   0.0629794   0.1090836   0.0000000), wk =   0.0533333
        k(   22) = (   0.0629794   0.1333244   0.0000000), wk =   0.1066667
        k(   23) = (   0.0629794   0.1575652   0.0000000), wk =   0.1066667
        k(   24) = (   0.0629794   0.1818060   0.0000000), wk =   0.0533333
        k(   25) = (   0.0839726   0.1454448   0.0000000), wk =   0.0533333
        k(   26) = (   0.0839726   0.1696856   0.0000000), wk =   0.1066667
        k(   27) = (   0.1049657   0.1818060   0.0000000), wk =   0.0177778

     Dense  grid:   107081 G-vectors     FFT dimensions: (  27,  27, 324)

     Estimated max dynamical RAM per process >      11.31 MB

     Estimated total dynamical RAM >     474.97 MB

     Atomic positions and unit cell read from directory:
     ./calc.save/

     Cannot read rho : file not found

     Initial potential from superposition of free atoms

     starting charge      51.7621, renormalised to      52.0000

     negative rho (up, down):  6.657E-04 0.000E+00
     Wavefunctions not found or not readable, recomputing them from scratch
     Starting wfcs are random

     total cpu time spent up to now is        3.0 secs

     Self-consistent Calculation

     iteration #  1     ecut=    50.00 Ry     beta= 0.70
     Davidson diagonalization with overlap
     c_bands:  5 eigenvalues not converged
     c_bands:  4 eigenvalues not converged
     c_bands:  3 eigenvalues not converged
     c_bands:  3 eigenvalues not converged
     c_bands:  3 eigenvalues not converged
     c_bands:  3 eigenvalues not converged
     c_bands:  2 eigenvalues not converged
     c_bands:  5 eigenvalues not converged
     c_bands:  4 eigenvalues not converged
     c_bands:  4 eigenvalues not converged
     c_bands:  4 eigenvalues not converged
     c_bands:  2 eigenvalues not converged
     c_bands:  3 eigenvalues not converged
     c_bands:  3 eigenvalues not converged
     c_bands:  5 eigenvalues not converged
     c_bands:  5 eigenvalues not converged
     c_bands:  4 eigenvalues not converged
     c_bands:  4 eigenvalues not converged
     c_bands:  1 eigenvalues not converged
     c_bands:  5 eigenvalues not converged
     c_bands:  5 eigenvalues not converged
     c_bands:  4 eigenvalues not converged
     ethr =  1.00E-05,  avg # of iterations = 22.1

     negative rho (up, down):  1.499E-04 0.000E+00

     total cpu time spent up to now is       28.4 secs

     total energy              =    -353.31592752 Ry
     estimated scf accuracy    <       0.25252395 Ry

     iteration #  2     ecut=    50.00 Ry     beta= 0.70
     Davidson diagonalization with overlap
     ethr =  4.86E-04,  avg # of iterations =  8.1

     negative rho (up, down):  1.448E-04 0.000E+00

     total cpu time spent up to now is       35.3 secs

     total energy              =    -351.68762894 Ry
     estimated scf accuracy    <      63.06119205 Ry

     iteration #  3     ecut=    50.00 Ry     beta= 0.70
     Davidson diagonalization with overlap
     ethr =  4.86E-04,  avg # of iterations =  7.8

     negative rho (up, down):  9.098E-05 0.000E+00

     total cpu time spent up to now is       42.3 secs

     total energy              =    -353.16930086 Ry
     estimated scf accuracy    <       3.15294590 Ry

     iteration #  4     ecut=    50.00 Ry     beta= 0.70
     Davidson diagonalization with overlap
     ethr =  4.86E-04,  avg # of iterations =  8.7

     negative rho (up, down):  5.461E-05 0.000E+00

     total cpu time spent up to now is       50.0 secs

     total energy              =    -353.39937831 Ry
     estimated scf accuracy    <       0.29672792 Ry

     iteration #  5     ecut=    50.00 Ry     beta= 0.70
     Davidson diagonalization with overlap
     ethr =  4.86E-04,  avg # of iterations =  2.2

     negative rho (up, down):  3.261E-05 0.000E+00

     total cpu time spent up to now is       52.6 secs

     total energy              =    -353.43042609 Ry
     estimated scf accuracy    <       0.07447914 Ry

     iteration #  6     ecut=    50.00 Ry     beta= 0.70
     Davidson diagonalization with overlap
     ethr =  1.43E-04,  avg # of iterations =  1.7

     negative rho (up, down):  1.268E-05 0.000E+00

     total cpu time spent up to now is       54.9 secs

     total energy              =    -353.43478561 Ry
     estimated scf accuracy    <       0.02992601 Ry

     iteration #  7     ecut=    50.00 Ry     beta= 0.70
     Davidson diagonalization with overlap
     ethr =  5.76E-05,  avg # of iterations =  2.6

     negative rho (up, down):  4.229E-06 0.000E+00

     total cpu time spent up to now is       57.6 secs

     total energy              =    -353.43570519 Ry
     estimated scf accuracy    <       0.01743937 Ry

     iteration #  8     ecut=    50.00 Ry     beta= 0.70
     Davidson diagonalization with overlap
     ethr =  3.35E-05,  avg # of iterations =  2.8

     negative rho (up, down):  4.633E-07 0.000E+00

     total cpu time spent up to now is       60.4 secs

     total energy              =    -353.43567075 Ry
     estimated scf accuracy    <       0.02117085 Ry

     iteration #  9     ecut=    50.00 Ry     beta= 0.70
     Davidson diagonalization with overlap
     ethr =  3.35E-05,  avg # of iterations =  1.3

     negative rho (up, down):  1.805E-07 0.000E+00

     total cpu time spent up to now is       65.9 secs

     total energy              =    -353.43612371 Ry
     estimated scf accuracy    <       0.01463532 Ry

     iteration # 10     ecut=    50.00 Ry     beta= 0.70
     Davidson diagonalization with overlap
     ethr =  2.81E-05,  avg # of iterations =  1.1

     negative rho (up, down):  4.906E-06 0.000E+00

     total cpu time spent up to now is       68.1 secs

     total energy              =    -353.43579916 Ry
     estimated scf accuracy    <       0.01127862 Ry

     iteration # 11     ecut=    50.00 Ry     beta= 0.70
     Davidson diagonalization with overlap
     ethr =  2.17E-05,  avg # of iterations =  1.9

     negative rho (up, down):  1.284E-04 0.000E+00

     total cpu time spent up to now is       70.5 secs

     total energy              =    -353.43307655 Ry
     estimated scf accuracy    <       0.00950046 Ry

     iteration # 12     ecut=    50.00 Ry     beta= 0.70
     Davidson diagonalization with overlap
     ethr =  1.83E-05,  avg # of iterations =  8.9

     negative rho (up, down):  1.445E-05 0.000E+00

     total cpu time spent up to now is       76.6 secs

     total energy              =    -353.43389284 Ry
     estimated scf accuracy    <       0.00034289 Ry

     iteration # 13     ecut=    50.00 Ry     beta= 0.70
     Davidson diagonalization with overlap
     ethr =  6.59E-07,  avg # of iterations =  7.3

     negative rho (up, down):  1.894E-06 0.000E+00

     total cpu time spent up to now is       82.3 secs

     total energy              =    -353.43395780 Ry
     estimated scf accuracy    <       0.00000902 Ry

     iteration # 14     ecut=    50.00 Ry     beta= 0.70
     Davidson diagonalization with overlap
     ethr =  1.73E-08,  avg # of iterations =  3.3

     negative rho (up, down):  3.880E-08 0.000E+00

     total cpu time spent up to now is       85.9 secs

     total energy              =    -353.43395974 Ry
     estimated scf accuracy    <       0.00000131 Ry

     iteration # 15     ecut=    50.00 Ry     beta= 0.70
     Davidson diagonalization with overlap
     ethr =  2.53E-09,  avg # of iterations =  3.7

     negative rho (up, down):  2.104E-08 0.000E+00

     total cpu time spent up to now is       89.7 secs

     total energy              =    -353.43395989 Ry
     estimated scf accuracy    <       0.00000295 Ry

     iteration # 16     ecut=    50.00 Ry     beta= 0.70
     Davidson diagonalization with overlap
     ethr =  2.53E-09,  avg # of iterations =  2.0

     total cpu time spent up to now is       92.4 secs

     End of self-consistent calculation

          k = 0.0000 0.0000 0.0000 ( 13361 PWs)   bands (ev):

   -61.2483 -60.5516 -35.3956 -35.1735 -35.1735 -34.8131 -34.4983 -34.4983
   -14.6460 -14.4249 -13.5543 -13.1703  -6.1760  -5.5812  -2.8606  -2.8606
    -2.7171  -1.9863  -1.9863  -1.7729  -1.7729  -1.6018  -0.8714  -0.8714
    -0.6461   0.0757   2.3959   2.3959   2.5701   2.5701   3.4217   3.4217
     3.6801   3.6801   4.8934   5.0372

          k = 0.0000 0.0242 0.0000 ( 13351 PWs)   bands (ev):

   -61.2466 -60.5499 -35.3922 -35.1903 -35.1773 -34.8094 -34.5155 -34.5022
   -14.5745 -14.3580 -13.5142 -13.1414  -6.0969  -5.4986  -3.0158  -2.8606
    -2.7921  -2.1636  -2.0364  -1.9130  -1.8804  -1.4895  -0.9897  -0.8222
    -0.6289   0.0223   2.3028   2.3989   2.4840   2.5212   3.2023   3.3390
     3.5251   3.5665   5.0115   5.1580

          k = 0.0000 0.0485 0.0000 ( 13353 PWs)   bands (ev):

   -61.2419 -60.5450 -35.3825 -35.2374 -35.1880 -34.7990 -34.5638 -34.5131
   -14.3660 -14.1637 -13.3970 -13.0575  -5.8785  -5.2715  -3.4111  -3.1997
    -2.6268  -2.5965  -2.4964  -2.1569  -1.6993  -1.4598  -1.2909  -0.8415
    -0.6448  -0.1949   2.0455   2.1920   2.3084   2.7044   2.7887   2.8985
     3.2810   3.7764   5.2929   5.4470

          k = 0.0000 0.0727 0.0000 ( 13344 PWs)   bands (ev):

   -61.2348 -60.5379 -35.3681 -35.3062 -35.2037 -34.7836 -34.6342 -34.5291
   -14.0389 -13.8609 -13.2132 -12.9274  -5.5942  -4.9830  -3.8841  -3.6297
    -3.2238  -3.0415  -2.5047  -2.3030  -1.6709  -1.6215  -1.3782  -1.0540
    -0.8400  -0.5713   1.7486   2.0879   2.1363   2.4106   2.9131   2.9149
     3.1440   4.0584   5.7118   5.8636

          k = 0.0000 0.0970 0.0000 ( 13316 PWs)   bands (ev):

   -61.2267 -60.5297 -35.3843 -35.3516 -35.2217 -34.7659 -34.7142 -34.5474
   -13.6270 -13.4812 -12.9828 -12.7665  -5.4307  -4.8734  -4.2274  -4.1030
    -3.7343  -3.6309  -2.8451  -2.0492  -1.9608  -1.8990  -1.3947  -1.1640
    -1.0037  -0.9134   1.6674   1.9115   2.1082   2.6254   2.6346   3.2197
     3.4290   4.2896   6.2477   6.3849

          k = 0.0000 0.1212 0.0000 ( 13332 PWs)   bands (ev):

   -61.2189 -60.5218 -35.4581 -35.3358 -35.2388 -34.7897 -34.7489 -34.5649
   -13.1886 -13.0695 -12.7392 -12.5977  -5.5986  -5.1934  -4.6082  -4.4204
    -4.1498  -3.8729  -3.1307  -2.3599  -2.1530  -1.6980  -1.6497  -1.3246
    -1.0453  -0.6535   1.8324   1.8325   2.2482   2.4492   2.9775   3.5838
     3.6413   4.4428   6.8106   6.9106

          k = 0.0000 0.1454 0.0000 ( 13364 PWs)   bands (ev):

   -61.2128 -60.5157 -35.5152 -35.3234 -35.2521 -34.8480 -34.7355 -34.5785
   -12.8131 -12.6908 -12.5319 -12.4490  -5.9088  -5.6882  -4.9895  -4.8358
    -4.3130  -3.9295  -3.3335  -2.5829  -2.3181  -1.8868  -1.4217  -1.2279
    -0.8965  -0.4037   1.8497   2.1119   2.4080   2.4783   3.2577   3.7691
     3.8571   4.5273   6.3821   6.8003

          k = 0.0000 0.1697 0.0000 ( 13390 PWs)   bands (ev):

   -61.2095 -60.5123 -35.5462 -35.3166 -35.2594 -34.8798 -34.7282 -34.5859
   -12.5935 -12.4614 -12.4060 -12.3539  -6.1217  -6.0166  -5.2175  -5.0979
    -4.3992  -3.9862  -3.4382  -2.6982  -2.3929  -1.9752  -1.3082  -1.0552
    -0.7021  -0.2840   1.8967   2.3450   2.4343   2.6819   3.3960   3.8266
     3.9856   4.5628   5.8272   6.1762

          k = 0.0210 0.0364 0.0000 ( 13361 PWs)   bands (ev):

   -61.2434 -60.5466 -35.3856 -35.2217 -35.1851 -34.8023 -34.5476 -34.5101
   -14.4345 -14.2274 -13.4355 -13.0850  -5.9474  -5.3429  -3.2877  -3.0882
    -2.6633  -2.4792  -2.3422  -2.1240  -1.7735  -1.4112  -1.2653  -0.7763
    -0.6108  -0.1093   2.1375   2.1941   2.3529   2.7158   2.8674   2.9587
     3.3409   3.7143   5.2062   5.3580

          k = 0.0210 0.0606 0.0000 ( 13350 PWs)   bands (ev):

   -61.2375 -60.5406 -35.3736 -35.2782 -35.1998 -34.7894 -34.6055 -34.5251
   -14.1664 -13.9787 -13.2847 -12.9777  -5.6898  -5.0764  -3.7123  -3.4301
    -2.9951  -2.7848  -2.5228  -2.4329  -1.7576  -1.5310  -1.3946  -0.8557
    -0.6703  -0.4043   1.8296   2.0974   2.1466   2.4174   2.7508   2.9905
     3.1030   3.9937   5.5566   5.7078

          k = 0.0210 0.0848 0.0000 ( 13332 PWs)   bands (ev):

   -61.2299 -60.5329 -35.3582 -35.3497 -35.2185 -34.7729 -34.6787 -34.5443
   -13.7957 -13.6367 -13.0765 -12.8313  -5.4438  -4.8463  -4.1029  -3.8547
    -3.5360  -3.3314  -2.9048  -2.2397  -2.1568  -1.5657  -1.2889  -1.0954
    -0.9285  -0.7142   1.6099   1.9267   2.1017   2.3823   2.7026   2.9173
     3.4262   4.2433   6.0427   6.1841

          k = 0.0210 0.1091 0.0000 ( 13324 PWs)   bands (ev):

   -61.2219 -60.5249 -35.4236 -35.3420 -35.2381 -34.7555 -34.7543 -34.5642
   -13.3673 -13.2392 -12.8370 -12.6646  -5.4490  -4.9610  -4.3746  -4.2731
    -3.9303  -3.8084  -3.1881  -2.5618  -1.9634  -1.8342  -1.3654  -1.3019
    -1.2061  -0.6591   1.6009   1.8890   2.1254   2.5419   2.7080   3.2388
     3.6765   4.4001   6.6228   6.7426

          k = 0.0210 0.1333 0.0000 ( 13341 PWs)   bands (ev):

   -61.2150 -60.5179 -35.4872 -35.3279 -35.2551 -34.8194 -34.7404 -34.5816
   -12.9554 -12.8382 -12.6074 -12.5029  -5.7153  -5.4049  -4.8183  -4.6308
    -4.2286  -3.8662  -3.3605  -2.7417  -2.0979  -1.8569  -1.6629  -1.2964
    -1.1311  -0.4384   1.7403   2.0190   2.2484   2.5793   3.0423   3.5641
     3.8163   4.4391   6.8606   7.1240

          k = 0.0210 0.1576 0.0000 ( 13363 PWs)   bands (ev):

   -61.2103 -60.5131 -35.5301 -35.3183 -35.2666 -34.8632 -34.7300 -34.5933
   -12.6540 -12.5214 -12.4401 -12.3755  -5.9789  -5.8289  -5.1429  -5.0183
    -4.3411  -3.9298  -3.4507  -2.8180  -2.2821  -1.9027  -1.7215  -1.1511
    -0.9314  -0.2621   1.8708   2.2465   2.4047   2.6999   3.3297   3.7059
     3.9485   4.3644   6.1124   6.5419

          k = 0.0210 0.1818 0.0000 ( 13368 PWs)   bands (ev):

   -61.2086 -60.5114 -35.5451 -35.3149 -35.2707 -34.8786 -34.7264 -34.5975
   -12.5418 -12.4159 -12.3630 -12.3235  -6.0870  -5.9947  -5.2648  -5.1593
    -4.3921  -3.9648  -3.4778  -2.8358  -2.3489  -1.9751  -1.6767  -1.0724
    -0.8312  -0.1858   1.9090   2.3876   2.4568   2.7921   3.4672   3.6704
     4.0913   4.2616   5.8171   6.1603

          k = 0.0420 0.0727 0.0000 ( 13333 PWs)   bands (ev):

   -61.2310 -60.5341 -35.3605 -35.3348 -35.2201 -34.7754 -34.6634 -34.5459
   -13.8539 -13.6902 -13.1087 -12.8534  -5.4531  -4.8428  -4.0413  -3.6956
    -3.4303  -3.1829  -3.0071  -2.4469  -2.2595  -1.4223  -1.3650  -1.0104
    -0.7128  -0.6284   1.5811   1.8963   2.0860   2.2521   2.6584   2.7708
     3.4578   4.2480   5.9792   6.1200

          k = 0.0420 0.0970 0.0000 ( 13330 PWs)   bands (ev):

   -61.2236 -60.5266 -35.3977 -35.3454 -35.2448 -34.7592 -34.7278 -34.5711
   -13.4633 -13.3285 -12.8886 -12.6990  -5.3471  -4.8072  -4.2101  -4.1041
    -3.7262  -3.6739  -3.3832  -2.9204  -2.2314  -1.6037  -1.5116  -1.1686
    -0.9548  -0.6125   1.4429   1.8055   2.1147   2.3556   2.6334   2.8876
     3.7444   4.4246   6.5272   6.6526

          k = 0.0420 0.1212 0.0000 ( 13323 PWs)   bands (ev):

   -61.2165 -60.5194 -35.4567 -35.3309 -35.2689 -34.7882 -34.7436 -34.5958
   -13.0534 -12.9361 -12.6570 -12.5352  -5.4991  -5.1019  -4.6411  -4.3937
    -4.1052  -3.7751  -3.5256  -3.0665  -2.3413  -1.8626  -1.7700  -1.3473
    -1.1053  -0.4690   1.5334   1.9526   2.1902   2.6243   2.7455   3.1337
     3.8916   4.5010   7.1375   7.2206

          k = 0.0420 0.1454 0.0000 ( 13357 PWs)   bands (ev):

   -61.2109 -60.5138 -35.5023 -35.3196 -35.2879 -34.8348 -34.7315 -34.6152
   -12.7080 -12.5783 -12.4618 -12.3875  -5.7270  -5.5022  -5.0769  -4.8788
    -4.2226  -3.8072  -3.5446  -3.0820  -2.3787  -2.1002  -1.8610  -1.7041
    -0.9249  -0.3053   1.7626   2.1789   2.3484   2.7995   2.9968   3.3771
     3.8901   4.4952   6.6105   7.0925

          k = 0.0420 0.1697 0.0000 ( 13368 PWs)   bands (ev):

   -61.2079 -60.5107 -35.5271 -35.3134 -35.2983 -34.8601 -34.7248 -34.6258
   -12.5074 -12.3832 -12.3277 -12.2907  -5.8767  -5.7664  -5.3188  -5.1743
    -4.3256  -3.8749  -3.5164  -3.0477  -2.3640  -2.2801  -1.9377  -1.8193
    -0.7416  -0.1510   1.8559   2.3280   2.5331   2.9411   3.1949   3.5455
     3.8028   4.4554   6.0602   6.4795

          k = 0.0630 0.1091 0.0000 ( 13323 PWs)   bands (ev):

   -61.2170 -60.5199 -35.4422 -35.3320 -35.2776 -34.7734 -34.7448 -34.6047
   -13.0883 -12.9702 -12.6742 -12.5460  -5.4013  -4.9629  -4.5547  -4.2362
    -4.0464  -3.7706  -3.5757  -3.2318  -2.5712  -2.1090  -1.6562  -1.2142
    -1.0832  -0.4884   1.4429   1.9055   2.1916   2.4947   2.7377   2.9219
     3.9443   4.5550   7.1176   7.2182

          k = 0.0630 0.1333 0.0000 ( 13309 PWs)   bands (ev):

   -61.2113 -60.5141 -35.4774 -35.3203 -35.3095 -34.8093 -34.7322 -34.6373
   -12.7398 -12.6121 -12.4727 -12.3922  -5.5153  -5.2121  -5.0459  -4.7211
    -4.0846  -3.7378  -3.5381  -3.2618  -2.9190  -2.5222  -1.9384  -1.5454
    -0.9486  -0.3639   1.6474   2.1355   2.3340   2.7042   2.8909   2.9792
     4.0307   4.6740   7.1762   7.5063

          k = 0.0630 0.1576 0.0000 ( 13361 PWs)   bands (ev):

   -61.2074 -60.5102 -35.4995 -35.3328 -35.3124 -34.8318 -34.7237 -34.6612
   -12.4900 -12.3623 -12.3075 -12.2651  -5.5888  -5.4389  -5.3644  -5.1312
    -4.1982  -3.7305  -3.5527  -3.2355  -3.0484  -2.6420  -2.2262  -1.8847
    -0.7205  -0.1703   1.7429   2.2138   2.6181   2.7966   3.0134   3.1545
     4.0481   4.7681   6.5090   6.9729

          k = 0.0630 0.1818 0.0000 ( 13378 PWs)   bands (ev):

   -61.2060 -60.5088 -35.5069 -35.3413 -35.3096 -34.8394 -34.7207 -34.6699
   -12.3982 -12.3054 -12.2167 -12.2077  -5.6163  -5.5329  -5.4616  -5.2803
    -4.2870  -3.8136  -3.4793  -3.2174  -3.0576  -2.6441  -2.3509  -2.0419
    -0.5938  -0.0557   1.6963   2.2387   2.7550   2.8319   3.0316   3.2994
     4.0462   4.7993   6.2413   6.6646

          k = 0.0840 0.1454 0.0000 ( 13355 PWs)   bands (ev):

   -61.2072 -60.5100 -35.4833 -35.3515 -35.3121 -34.8152 -34.7234 -34.6804
   -12.4850 -12.3551 -12.3011 -12.2554  -5.4572  -5.4064  -5.2096  -5.0995
    -4.0556  -3.6299  -3.5618  -3.4409  -3.2301  -3.1418  -2.2070  -1.8537
    -0.7197  -0.1836   1.6862   2.1560   2.6475   2.6838   2.8183   3.1935
     4.1611   4.8989   6.9773   7.1024

          k = 0.0840 0.1697 0.0000 ( 13352 PWs)   bands (ev):

   -61.2050 -60.5077 -35.4793 -35.3817 -35.3075 -34.8110 -34.7185 -34.7113
   -12.3410 -12.2648 -12.1693 -12.1435  -5.6474  -5.3604  -5.2474  -5.1265
    -4.2288  -3.8740  -3.7419  -3.4157  -3.2487  -3.1607  -2.4357  -2.1186
    -0.4889   0.0219   1.5227   2.1006   2.6330   2.7230   2.9274   3.4870
     4.2548   5.0412   6.5944   6.9765

          k = 0.1050 0.1818 0.0000 ( 13335 PWs)   bands (ev):

   -61.2041 -60.5069 -35.4577 -35.4135 -35.3058 -34.7887 -34.7441 -34.7166
   -12.2886 -12.2322 -12.1323 -12.0814  -5.7370  -5.4277  -4.9523  -4.8459
    -4.4438  -4.2208  -3.9550  -3.3692  -3.2806  -3.1566  -2.5458  -2.2401
    -0.3632   0.1311   1.3774   1.9990   2.5684   2.6146   3.0745   3.6402
     4.3497   5.1460   6.6554   7.1207

     highest occupied, lowest unoccupied level (ev):     0.1311    1.3774

!    total energy              =    -353.43396025 Ry
     estimated scf accuracy    <       0.00000004 Ry

     The total energy is the sum of the following terms:
     one-electron contribution =   -6365.08070297 Ry
     hartree contribution      =    3183.08484750 Ry
     xc contribution           =     -48.82750922 Ry
     ewald contribution        =    2877.38940443 Ry

     convergence has been achieved in  16 iterations

     Forces acting on atoms (cartesian axes, Ry/au):

     atom    1 type  1   force =     0.00000000   -0.00000000   -0.00117970
     atom    2 type  2   force =     0.00000000    0.00000000   -0.01614277
     atom    3 type  2   force =     0.00000000   -0.00000000    0.01169752
     atom    4 type  1   force =     0.00000000    0.00000000    0.00117871
     atom    5 type  3   force =     0.00000000    0.00000000    0.03970432
     atom    6 type  3   force =     0.00000000    0.00000000   -0.03525807

     Total force =     0.056743     Total SCF correction =     0.000699

     Writing all to output data dir ./calc.save/

     init_run     :      2.83s CPU      2.53s WALL (       1 calls)
     electrons    :    254.07s CPU     89.55s WALL (       1 calls)
     forces       :      3.26s CPU      0.88s WALL (       1 calls)

     Called by init_run:
     wfcinit      :      2.13s CPU      1.45s WALL (       1 calls)
     potinit      :      0.08s CPU      0.08s WALL (       1 calls)
     hinit0       :      0.59s CPU      0.97s WALL (       1 calls)

     Called by electrons:
     c_bands      :    251.45s CPU     86.91s WALL (      16 calls)
     sum_band     :      2.42s CPU      2.31s WALL (      16 calls)
     v_of_rho     :      0.16s CPU      0.10s WALL (      17 calls)
     mix_rho      :      0.03s CPU      0.03s WALL (      16 calls)

     Called by c_bands:
     init_us_2    :      6.95s CPU      1.66s WALL (     918 calls)
     init_us_2:cp :      6.91s CPU      1.65s WALL (     918 calls)
     cegterg      :    243.14s CPU     80.87s WALL (     437 calls)

     Called by *egterg:
     cdiaghg      :    126.91s CPU     33.84s WALL (    2738 calls)
     h_psi        :     86.80s CPU     32.10s WALL (    2770 calls)
     g_psi        :      2.26s CPU      1.88s WALL (    2306 calls)

     Called by h_psi:
     h_psi:calbec :      2.82s CPU      2.50s WALL (    2770 calls)
     vloc_psi     :     68.23s CPU     23.26s WALL (    2770 calls)
     add_vuspsi   :     14.23s CPU      5.22s WALL (    2770 calls)

     General routines
     calbec       :      2.92s CPU      2.59s WALL (    2878 calls)
     fft          :      0.13s CPU      0.11s WALL (     171 calls)
     ffts         :      0.00s CPU      0.00s WALL (      16 calls)
     fftw         :     66.61s CPU     23.86s WALL (  118918 calls)

     Parallel routines

     PWSCF        :   4m20.47s CPU   1m35.66s WALL


   This run was terminated on:  11:40: 8  28Jun2023            

=------------------------------------------------------------------------------=
   JOB DONE.
=------------------------------------------------------------------------------=
