
     Program PWSCF v.7.1 starts on 28Jun2023 at 11:40:17 

     This program is part of the open-source Quantum ESPRESSO suite
     for quantum simulation of materials; please cite
         "P. Giannozzi et al., J. Phys.:Condens. Matter 21 395502 (2009);
         "P. Giannozzi et al., J. Phys.:Condens. Matter 29 465901 (2017);
         "P. Giannozzi et al., J. Chem. Phys. 152 154105 (2020);
          URL http://www.quantum-espresso.org", 
     in publications or presentations arising from this work. More details at
     http://www.quantum-espresso.org/quote

     Parallel version (MPI), running on    42 processors

     MPI processes distributed on     1 nodes
     572973 MiB available memory on the printing compute node when the environment starts

     Waiting for input...
     Reading input from standard input

     Current dimensions of program PWSCF are:
     Max number of different atomic species (ntypx) = 10
     Max number of k-points (npk) =  40000
     Max angular momentum in pseudopotentials (lmaxx) =  4
     Message from routine input:
     WARNING: "startingwfc" set to atomic+random may spoil restart
     Message from routine cell_base_init:
     DEPRECATED: use true lattice parameter, not A to a.u. conversion factor

     IMPORTANT: XC functional enforced from input :
     Exchange-correlation= PBE
                           (   1   4   3   4   0   0   0)
     Any further DFT definition will be discarded
     Please, verify this is what you really want

     Message from routine setup:
     using ibrav=0 with symmetry is DISCOURAGED, use correct ibrav instead

     R & G space division:  proc/nbgrp/npool/nimage =      42
     Subspace diagonalization in iterative solution of the eigenvalue problem:
     a serial algorithm will be used


     Parallelization info
     --------------------
     sticks:   dense  smooth     PW     G-vecs:    dense   smooth      PW
     Min          11      11      3                 2511     2511     429
     Max          12      12      4                 2566     2566     492
     Sum         499     499    163               107081   107081   19797

     Using Slab Decomposition



     bravais-lattice index     =            0
     lattice parameter (alat)  =       1.8897  a.u.
     unit-cell volume          =    2235.1947 (a.u.)^3
     number of atoms/cell      =            6
     number of atomic types    =            3
     number of electrons       =        52.00
     number of Kohn-Sham states=           36
     kinetic-energy cutoff     =      50.0000  Ry
     charge density cutoff     =     199.9999  Ry
     Exchange-correlation= PBE
                           (   1   4   3   4   0   0   0)

     celldm(1)=   1.889726  celldm(2)=   0.000000  celldm(3)=   0.000000
     celldm(4)=   0.000000  celldm(5)=   0.000000  celldm(6)=   0.000000

     crystal axes: (cart. coord. in units of alat)
               a(1) = (   3.175640   0.000000   0.000000 )  
               a(2) = (  -1.587820   2.750185   0.000000 )  
               a(3) = (   0.000000   0.000000  37.925000 )  

     reciprocal axes: (cart. coord. in units 2 pi/alat)
               b(1) = (  0.314897  0.181806 -0.000000 )  
               b(2) = (  0.000000  0.363612  0.000000 )  
               b(3) = (  0.000000 -0.000000  0.026368 )  


     PseudoPot. # 1 for Mo read from file:
     /ccs/home/dpalmer3/qe-7.1/pseudo/Mo.UPF
     MD5 check sum: e75ed155aa411dd1617a1e98b4cfb1d3
     Pseudo is Norm-conserving, Zval = 14.0
     Generated using ONCVPSP code by D. R. Hamann
     Using radial grid of  602 points,  6 beta functions with: 
                l(1) =   0
                l(2) =   0
                l(3) =   1
                l(4) =   1
                l(5) =   2
                l(6) =   2

     PseudoPot. # 2 for S  read from file:
     /ccs/home/dpalmer3/qe-7.1/pseudo/S.UPF
     MD5 check sum: bb66adc3f78a1ab6d878b9658eae71a4
     Pseudo is Norm-conserving, Zval =  6.0
     Generated using ONCVPSP code by D. R. Hamann
     Using radial grid of  602 points,  4 beta functions with: 
                l(1) =   0
                l(2) =   0
                l(3) =   1
                l(4) =   1

     PseudoPot. # 3 for Se read from file:
     /ccs/home/dpalmer3/qe-7.1/pseudo/Se.UPF
     MD5 check sum: e78e48a4f5d8ce1f8dc76ec1271f249c
     Pseudo is Norm-conserving, Zval =  6.0
     Generated using ONCVPSP code by D. R. Hamann
     Using radial grid of  602 points,  6 beta functions with: 
                l(1) =   0
                l(2) =   0
                l(3) =   1
                l(4) =   1
                l(5) =   2
                l(6) =   2

     atomic species   valence    mass     pseudopotential
        Mo1           14.00    95.95000     Mo( 1.00)
        S1             6.00    32.06000     S ( 1.00)
        Se1            6.00    78.97100     Se( 1.00)

      6 Sym. Ops. (no inversion) found


                                    s                        frac. trans.

      isym =  1     identity                                     

 cryst.   s( 1) = (     1          0          0      )
                  (     0          1          0      )
                  (     0          0          1      )

 cart.    s( 1) = (  1.0000000 -0.0000000  0.0000000 )
                  (  0.0000000  1.0000000  0.0000000 )
                  (  0.0000000  0.0000000  1.0000000 )


      isym =  2     120 deg rotation - cryst. axis [0,0,1]       

 cryst.   s( 2) = (     0          1          0      )
                  (    -1         -1          0      )
                  (     0          0          1      )

 cart.    s( 2) = ( -0.5000000 -0.8660254  0.0000000 )
                  (  0.8660254 -0.5000000  0.0000000 )
                  (  0.0000000  0.0000000  1.0000000 )


      isym =  3     120 deg rotation - cryst. axis [0,0,-1]      

 cryst.   s( 3) = (    -1         -1          0      )
                  (     1          0          0      )
                  (     0          0          1      )

 cart.    s( 3) = ( -0.5000000  0.8660254  0.0000000 )
                  ( -0.8660254 -0.5000000  0.0000000 )
                  (  0.0000000  0.0000000  1.0000000 )


      isym =  4     inv. 180 deg rotation - cart. axis [1,0,0]   

 cryst.   s( 4) = (    -1          0          0      )
                  (     1          1          0      )
                  (     0          0          1      )

 cart.    s( 4) = ( -1.0000000 -0.0000000  0.0000000 )
                  (  0.0000000  1.0000000  0.0000000 )
                  (  0.0000000  0.0000000  1.0000000 )


      isym =  5     inv. 180 deg rotation - cryst. axis [0,1,0]  

 cryst.   s( 5) = (     1          1          0      )
                  (     0         -1          0      )
                  (     0          0          1      )

 cart.    s( 5) = (  0.5000000  0.8660254  0.0000000 )
                  (  0.8660254 -0.5000000  0.0000000 )
                  (  0.0000000  0.0000000  1.0000000 )


      isym =  6     inv. 180 deg rotation - cryst. axis [1,1,0]  

 cryst.   s( 6) = (     0         -1          0      )
                  (    -1          0          0      )
                  (     0          0          1      )

 cart.    s( 6) = (  0.5000000 -0.8660254  0.0000000 )
                  ( -0.8660254 -0.5000000  0.0000000 )
                  (  0.0000000  0.0000000  1.0000000 )


   Cartesian axes

     site n.     atom                  positions (alat units)
         1           Mo1 tau(   1) = (   0.0000000   0.0000000  11.5850000  )
         2           S1  tau(   2) = (   1.5878200   0.9167283  13.1700000  )
         3           S1  tau(   3) = (   1.5878200   0.9167283  10.0000000  )
         4           Mo1 tau(   4) = (   1.5878200   0.9167283  17.9250000  )
         5           Se1 tau(   5) = (  -0.0000000   1.8334566  19.5900000  )
         6           Se1 tau(   6) = (  -0.0000000   1.8334566  16.2600000  )

   Crystallographic axes

     site n.     atom                  positions (cryst. coord.)
         1           Mo1 tau(   1) = (  0.0000000  0.0000000  0.3054713  )
         2           S1  tau(   2) = (  0.6666667  0.3333333  0.3472643  )
         3           S1  tau(   3) = (  0.6666667  0.3333333  0.2636783  )
         4           Mo1 tau(   4) = (  0.6666667  0.3333333  0.4726434  )
         5           Se1 tau(   5) = (  0.3333333  0.6666667  0.5165458  )
         6           Se1 tau(   6) = (  0.3333333  0.6666667  0.4287409  )

     number of k points=   225
                       cart. coord. in units 2pi/alat
        k(    1) = (  -0.1469520  -0.2545283   0.0000000), wk =   0.0088889
        k(    2) = (  -0.1469520  -0.2302875   0.0000000), wk =   0.0088889
        k(    3) = (  -0.1469520  -0.2060468   0.0000000), wk =   0.0088889
        k(    4) = (  -0.1469520  -0.1818060   0.0000000), wk =   0.0088889
        k(    5) = (  -0.1469520  -0.1575652   0.0000000), wk =   0.0088889
        k(    6) = (  -0.1469520  -0.1333244   0.0000000), wk =   0.0088889
        k(    7) = (  -0.1469520  -0.1090836   0.0000000), wk =   0.0088889
        k(    8) = (  -0.1469520  -0.0848428   0.0000000), wk =   0.0088889
        k(    9) = (  -0.1469520  -0.0606020   0.0000000), wk =   0.0088889
        k(   10) = (  -0.1469520  -0.0363612   0.0000000), wk =   0.0088889
        k(   11) = (  -0.1469520  -0.0121204   0.0000000), wk =   0.0088889
        k(   12) = (  -0.1469520   0.0121204   0.0000000), wk =   0.0088889
        k(   13) = (  -0.1469520   0.0363612   0.0000000), wk =   0.0088889
        k(   14) = (  -0.1469520   0.0606020   0.0000000), wk =   0.0088889
        k(   15) = (  -0.1469520   0.0848428   0.0000000), wk =   0.0088889
        k(   16) = (  -0.1259589  -0.2424079   0.0000000), wk =   0.0088889
        k(   17) = (  -0.1259589  -0.2181671   0.0000000), wk =   0.0088889
        k(   18) = (  -0.1259589  -0.1939264   0.0000000), wk =   0.0088889
        k(   19) = (  -0.1259589  -0.1696856   0.0000000), wk =   0.0088889
        k(   20) = (  -0.1259589  -0.1454448   0.0000000), wk =   0.0088889
        k(   21) = (  -0.1259589  -0.1212040   0.0000000), wk =   0.0088889
        k(   22) = (  -0.1259589  -0.0969632   0.0000000), wk =   0.0088889
        k(   23) = (  -0.1259589  -0.0727224   0.0000000), wk =   0.0088889
        k(   24) = (  -0.1259589  -0.0484816   0.0000000), wk =   0.0088889
        k(   25) = (  -0.1259589  -0.0242408   0.0000000), wk =   0.0088889
        k(   26) = (  -0.1259589  -0.0000000   0.0000000), wk =   0.0088889
        k(   27) = (  -0.1259589   0.0242408   0.0000000), wk =   0.0088889
        k(   28) = (  -0.1259589   0.0484816   0.0000000), wk =   0.0088889
        k(   29) = (  -0.1259589   0.0727224   0.0000000), wk =   0.0088889
        k(   30) = (  -0.1259589   0.0969632   0.0000000), wk =   0.0088889
        k(   31) = (  -0.1049657  -0.2302875   0.0000000), wk =   0.0088889
        k(   32) = (  -0.1049657  -0.2060468   0.0000000), wk =   0.0088889
        k(   33) = (  -0.1049657  -0.1818060   0.0000000), wk =   0.0088889
        k(   34) = (  -0.1049657  -0.1575652   0.0000000), wk =   0.0088889
        k(   35) = (  -0.1049657  -0.1333244   0.0000000), wk =   0.0088889
        k(   36) = (  -0.1049657  -0.1090836   0.0000000), wk =   0.0088889
        k(   37) = (  -0.1049657  -0.0848428   0.0000000), wk =   0.0088889
        k(   38) = (  -0.1049657  -0.0606020   0.0000000), wk =   0.0088889
        k(   39) = (  -0.1049657  -0.0363612   0.0000000), wk =   0.0088889
        k(   40) = (  -0.1049657  -0.0121204   0.0000000), wk =   0.0088889
        k(   41) = (  -0.1049657   0.0121204   0.0000000), wk =   0.0088889
        k(   42) = (  -0.1049657   0.0363612   0.0000000), wk =   0.0088889
        k(   43) = (  -0.1049657   0.0606020   0.0000000), wk =   0.0088889
        k(   44) = (  -0.1049657   0.0848428   0.0000000), wk =   0.0088889
        k(   45) = (  -0.1049657   0.1090836   0.0000000), wk =   0.0088889
        k(   46) = (  -0.0839726  -0.2181671   0.0000000), wk =   0.0088889
        k(   47) = (  -0.0839726  -0.1939264   0.0000000), wk =   0.0088889
        k(   48) = (  -0.0839726  -0.1696856   0.0000000), wk =   0.0088889
        k(   49) = (  -0.0839726  -0.1454448   0.0000000), wk =   0.0088889
        k(   50) = (  -0.0839726  -0.1212040   0.0000000), wk =   0.0088889
        k(   51) = (  -0.0839726  -0.0969632   0.0000000), wk =   0.0088889
        k(   52) = (  -0.0839726  -0.0727224   0.0000000), wk =   0.0088889
        k(   53) = (  -0.0839726  -0.0484816   0.0000000), wk =   0.0088889
        k(   54) = (  -0.0839726  -0.0242408   0.0000000), wk =   0.0088889
        k(   55) = (  -0.0839726  -0.0000000   0.0000000), wk =   0.0088889
        k(   56) = (  -0.0839726   0.0242408   0.0000000), wk =   0.0088889
        k(   57) = (  -0.0839726   0.0484816   0.0000000), wk =   0.0088889
        k(   58) = (  -0.0839726   0.0727224   0.0000000), wk =   0.0088889
        k(   59) = (  -0.0839726   0.0969632   0.0000000), wk =   0.0088889
        k(   60) = (  -0.0839726   0.1212040   0.0000000), wk =   0.0088889
        k(   61) = (  -0.0629794  -0.2060468   0.0000000), wk =   0.0088889
        k(   62) = (  -0.0629794  -0.1818060   0.0000000), wk =   0.0088889
        k(   63) = (  -0.0629794  -0.1575652   0.0000000), wk =   0.0088889
        k(   64) = (  -0.0629794  -0.1333244   0.0000000), wk =   0.0088889
        k(   65) = (  -0.0629794  -0.1090836   0.0000000), wk =   0.0088889
        k(   66) = (  -0.0629794  -0.0848428   0.0000000), wk =   0.0088889
        k(   67) = (  -0.0629794  -0.0606020   0.0000000), wk =   0.0088889
        k(   68) = (  -0.0629794  -0.0363612   0.0000000), wk =   0.0088889
        k(   69) = (  -0.0629794  -0.0121204   0.0000000), wk =   0.0088889
        k(   70) = (  -0.0629794   0.0121204   0.0000000), wk =   0.0088889
        k(   71) = (  -0.0629794   0.0363612   0.0000000), wk =   0.0088889
        k(   72) = (  -0.0629794   0.0606020   0.0000000), wk =   0.0088889
        k(   73) = (  -0.0629794   0.0848428   0.0000000), wk =   0.0088889
        k(   74) = (  -0.0629794   0.1090836   0.0000000), wk =   0.0088889
        k(   75) = (  -0.0629794   0.1333244   0.0000000), wk =   0.0088889
        k(   76) = (  -0.0419863  -0.1939264   0.0000000), wk =   0.0088889
        k(   77) = (  -0.0419863  -0.1696856   0.0000000), wk =   0.0088889
        k(   78) = (  -0.0419863  -0.1454448   0.0000000), wk =   0.0088889
        k(   79) = (  -0.0419863  -0.1212040   0.0000000), wk =   0.0088889
        k(   80) = (  -0.0419863  -0.0969632   0.0000000), wk =   0.0088889
        k(   81) = (  -0.0419863  -0.0727224   0.0000000), wk =   0.0088889
        k(   82) = (  -0.0419863  -0.0484816   0.0000000), wk =   0.0088889
        k(   83) = (  -0.0419863  -0.0242408   0.0000000), wk =   0.0088889
        k(   84) = (  -0.0419863  -0.0000000   0.0000000), wk =   0.0088889
        k(   85) = (  -0.0419863   0.0242408   0.0000000), wk =   0.0088889
        k(   86) = (  -0.0419863   0.0484816   0.0000000), wk =   0.0088889
        k(   87) = (  -0.0419863   0.0727224   0.0000000), wk =   0.0088889
        k(   88) = (  -0.0419863   0.0969632   0.0000000), wk =   0.0088889
        k(   89) = (  -0.0419863   0.1212040   0.0000000), wk =   0.0088889
        k(   90) = (  -0.0419863   0.1454448   0.0000000), wk =   0.0088889
        k(   91) = (  -0.0209931  -0.1818060   0.0000000), wk =   0.0088889
        k(   92) = (  -0.0209931  -0.1575652   0.0000000), wk =   0.0088889
        k(   93) = (  -0.0209931  -0.1333244   0.0000000), wk =   0.0088889
        k(   94) = (  -0.0209931  -0.1090836   0.0000000), wk =   0.0088889
        k(   95) = (  -0.0209931  -0.0848428   0.0000000), wk =   0.0088889
        k(   96) = (  -0.0209931  -0.0606020   0.0000000), wk =   0.0088889
        k(   97) = (  -0.0209931  -0.0363612   0.0000000), wk =   0.0088889
        k(   98) = (  -0.0209931  -0.0121204   0.0000000), wk =   0.0088889
        k(   99) = (  -0.0209931   0.0121204   0.0000000), wk =   0.0088889
        k(  100) = (  -0.0209931   0.0363612   0.0000000), wk =   0.0088889
        k(  101) = (  -0.0209931   0.0606020   0.0000000), wk =   0.0088889
        k(  102) = (  -0.0209931   0.0848428   0.0000000), wk =   0.0088889
        k(  103) = (  -0.0209931   0.1090836   0.0000000), wk =   0.0088889
        k(  104) = (  -0.0209931   0.1333244   0.0000000), wk =   0.0088889
        k(  105) = (  -0.0209931   0.1575652   0.0000000), wk =   0.0088889
        k(  106) = (   0.0000000  -0.1696856   0.0000000), wk =   0.0088889
        k(  107) = (   0.0000000  -0.1454448   0.0000000), wk =   0.0088889
        k(  108) = (   0.0000000  -0.1212040   0.0000000), wk =   0.0088889
        k(  109) = (   0.0000000  -0.0969632   0.0000000), wk =   0.0088889
        k(  110) = (   0.0000000  -0.0727224   0.0000000), wk =   0.0088889
        k(  111) = (   0.0000000  -0.0484816   0.0000000), wk =   0.0088889
        k(  112) = (   0.0000000  -0.0242408   0.0000000), wk =   0.0088889
        k(  113) = (   0.0000000   0.0000000   0.0000000), wk =   0.0088889
        k(  114) = (   0.0000000   0.0242408   0.0000000), wk =   0.0088889
        k(  115) = (   0.0000000   0.0484816   0.0000000), wk =   0.0088889
        k(  116) = (   0.0000000   0.0727224   0.0000000), wk =   0.0088889
        k(  117) = (   0.0000000   0.0969632   0.0000000), wk =   0.0088889
        k(  118) = (   0.0000000   0.1212040   0.0000000), wk =   0.0088889
        k(  119) = (   0.0000000   0.1454448   0.0000000), wk =   0.0088889
        k(  120) = (   0.0000000   0.1696856   0.0000000), wk =   0.0088889
        k(  121) = (   0.0209931  -0.1575652   0.0000000), wk =   0.0088889
        k(  122) = (   0.0209931  -0.1333244   0.0000000), wk =   0.0088889
        k(  123) = (   0.0209931  -0.1090836   0.0000000), wk =   0.0088889
        k(  124) = (   0.0209931  -0.0848428   0.0000000), wk =   0.0088889
        k(  125) = (   0.0209931  -0.0606020   0.0000000), wk =   0.0088889
        k(  126) = (   0.0209931  -0.0363612   0.0000000), wk =   0.0088889
        k(  127) = (   0.0209931  -0.0121204   0.0000000), wk =   0.0088889
        k(  128) = (   0.0209931   0.0121204   0.0000000), wk =   0.0088889
        k(  129) = (   0.0209931   0.0363612   0.0000000), wk =   0.0088889
        k(  130) = (   0.0209931   0.0606020   0.0000000), wk =   0.0088889
        k(  131) = (   0.0209931   0.0848428   0.0000000), wk =   0.0088889
        k(  132) = (   0.0209931   0.1090836   0.0000000), wk =   0.0088889
        k(  133) = (   0.0209931   0.1333244   0.0000000), wk =   0.0088889
        k(  134) = (   0.0209931   0.1575652   0.0000000), wk =   0.0088889
        k(  135) = (   0.0209931   0.1818060   0.0000000), wk =   0.0088889
        k(  136) = (   0.0419863  -0.1454448   0.0000000), wk =   0.0088889
        k(  137) = (   0.0419863  -0.1212040   0.0000000), wk =   0.0088889
        k(  138) = (   0.0419863  -0.0969632   0.0000000), wk =   0.0088889
        k(  139) = (   0.0419863  -0.0727224   0.0000000), wk =   0.0088889
        k(  140) = (   0.0419863  -0.0484816   0.0000000), wk =   0.0088889
        k(  141) = (   0.0419863  -0.0242408   0.0000000), wk =   0.0088889
        k(  142) = (   0.0419863   0.0000000   0.0000000), wk =   0.0088889
        k(  143) = (   0.0419863   0.0242408   0.0000000), wk =   0.0088889
        k(  144) = (   0.0419863   0.0484816   0.0000000), wk =   0.0088889
        k(  145) = (   0.0419863   0.0727224   0.0000000), wk =   0.0088889
        k(  146) = (   0.0419863   0.0969632   0.0000000), wk =   0.0088889
        k(  147) = (   0.0419863   0.1212040   0.0000000), wk =   0.0088889
        k(  148) = (   0.0419863   0.1454448   0.0000000), wk =   0.0088889
        k(  149) = (   0.0419863   0.1696856   0.0000000), wk =   0.0088889
        k(  150) = (   0.0419863   0.1939264   0.0000000), wk =   0.0088889
        k(  151) = (   0.0629794  -0.1333244   0.0000000), wk =   0.0088889
        k(  152) = (   0.0629794  -0.1090836   0.0000000), wk =   0.0088889
        k(  153) = (   0.0629794  -0.0848428   0.0000000), wk =   0.0088889
        k(  154) = (   0.0629794  -0.0606020   0.0000000), wk =   0.0088889
        k(  155) = (   0.0629794  -0.0363612   0.0000000), wk =   0.0088889
        k(  156) = (   0.0629794  -0.0121204   0.0000000), wk =   0.0088889
        k(  157) = (   0.0629794   0.0121204   0.0000000), wk =   0.0088889
        k(  158) = (   0.0629794   0.0363612   0.0000000), wk =   0.0088889
        k(  159) = (   0.0629794   0.0606020   0.0000000), wk =   0.0088889
        k(  160) = (   0.0629794   0.0848428   0.0000000), wk =   0.0088889
        k(  161) = (   0.0629794   0.1090836   0.0000000), wk =   0.0088889
        k(  162) = (   0.0629794   0.1333244   0.0000000), wk =   0.0088889
        k(  163) = (   0.0629794   0.1575652   0.0000000), wk =   0.0088889
        k(  164) = (   0.0629794   0.1818060   0.0000000), wk =   0.0088889
        k(  165) = (   0.0629794   0.2060468   0.0000000), wk =   0.0088889
        k(  166) = (   0.0839726  -0.1212040   0.0000000), wk =   0.0088889
        k(  167) = (   0.0839726  -0.0969632   0.0000000), wk =   0.0088889
        k(  168) = (   0.0839726  -0.0727224   0.0000000), wk =   0.0088889
        k(  169) = (   0.0839726  -0.0484816   0.0000000), wk =   0.0088889
        k(  170) = (   0.0839726  -0.0242408   0.0000000), wk =   0.0088889
        k(  171) = (   0.0839726  -0.0000000   0.0000000), wk =   0.0088889
        k(  172) = (   0.0839726   0.0242408   0.0000000), wk =   0.0088889
        k(  173) = (   0.0839726   0.0484816   0.0000000), wk =   0.0088889
        k(  174) = (   0.0839726   0.0727224   0.0000000), wk =   0.0088889
        k(  175) = (   0.0839726   0.0969632   0.0000000), wk =   0.0088889
        k(  176) = (   0.0839726   0.1212040   0.0000000), wk =   0.0088889
        k(  177) = (   0.0839726   0.1454448   0.0000000), wk =   0.0088889
        k(  178) = (   0.0839726   0.1696856   0.0000000), wk =   0.0088889
        k(  179) = (   0.0839726   0.1939264   0.0000000), wk =   0.0088889
        k(  180) = (   0.0839726   0.2181671   0.0000000), wk =   0.0088889
        k(  181) = (   0.1049657  -0.1090836   0.0000000), wk =   0.0088889
        k(  182) = (   0.1049657  -0.0848428   0.0000000), wk =   0.0088889
        k(  183) = (   0.1049657  -0.0606020   0.0000000), wk =   0.0088889
        k(  184) = (   0.1049657  -0.0363612   0.0000000), wk =   0.0088889
        k(  185) = (   0.1049657  -0.0121204   0.0000000), wk =   0.0088889
        k(  186) = (   0.1049657   0.0121204   0.0000000), wk =   0.0088889
        k(  187) = (   0.1049657   0.0363612   0.0000000), wk =   0.0088889
        k(  188) = (   0.1049657   0.0606020   0.0000000), wk =   0.0088889
        k(  189) = (   0.1049657   0.0848428   0.0000000), wk =   0.0088889
        k(  190) = (   0.1049657   0.1090836   0.0000000), wk =   0.0088889
        k(  191) = (   0.1049657   0.1333244   0.0000000), wk =   0.0088889
        k(  192) = (   0.1049657   0.1575652   0.0000000), wk =   0.0088889
        k(  193) = (   0.1049657   0.1818060   0.0000000), wk =   0.0088889
        k(  194) = (   0.1049657   0.2060468   0.0000000), wk =   0.0088889
        k(  195) = (   0.1049657   0.2302875   0.0000000), wk =   0.0088889
        k(  196) = (   0.1259589  -0.0969632   0.0000000), wk =   0.0088889
        k(  197) = (   0.1259589  -0.0727224   0.0000000), wk =   0.0088889
        k(  198) = (   0.1259589  -0.0484816   0.0000000), wk =   0.0088889
        k(  199) = (   0.1259589  -0.0242408   0.0000000), wk =   0.0088889
        k(  200) = (   0.1259589   0.0000000   0.0000000), wk =   0.0088889
        k(  201) = (   0.1259589   0.0242408   0.0000000), wk =   0.0088889
        k(  202) = (   0.1259589   0.0484816   0.0000000), wk =   0.0088889
        k(  203) = (   0.1259589   0.0727224   0.0000000), wk =   0.0088889
        k(  204) = (   0.1259589   0.0969632   0.0000000), wk =   0.0088889
        k(  205) = (   0.1259589   0.1212040   0.0000000), wk =   0.0088889
        k(  206) = (   0.1259589   0.1454448   0.0000000), wk =   0.0088889
        k(  207) = (   0.1259589   0.1696856   0.0000000), wk =   0.0088889
        k(  208) = (   0.1259589   0.1939264   0.0000000), wk =   0.0088889
        k(  209) = (   0.1259589   0.2181671   0.0000000), wk =   0.0088889
        k(  210) = (   0.1259589   0.2424079   0.0000000), wk =   0.0088889
        k(  211) = (   0.1469520  -0.0848428   0.0000000), wk =   0.0088889
        k(  212) = (   0.1469520  -0.0606020   0.0000000), wk =   0.0088889
        k(  213) = (   0.1469520  -0.0363612   0.0000000), wk =   0.0088889
        k(  214) = (   0.1469520  -0.0121204   0.0000000), wk =   0.0088889
        k(  215) = (   0.1469520   0.0121204   0.0000000), wk =   0.0088889
        k(  216) = (   0.1469520   0.0363612   0.0000000), wk =   0.0088889
        k(  217) = (   0.1469520   0.0606020   0.0000000), wk =   0.0088889
        k(  218) = (   0.1469520   0.0848428   0.0000000), wk =   0.0088889
        k(  219) = (   0.1469520   0.1090836   0.0000000), wk =   0.0088889
        k(  220) = (   0.1469520   0.1333244   0.0000000), wk =   0.0088889
        k(  221) = (   0.1469520   0.1575652   0.0000000), wk =   0.0088889
        k(  222) = (   0.1469520   0.1818060   0.0000000), wk =   0.0088889
        k(  223) = (   0.1469520   0.2060468   0.0000000), wk =   0.0088889
        k(  224) = (   0.1469520   0.2302875   0.0000000), wk =   0.0088889
        k(  225) = (   0.1469520   0.2545283   0.0000000), wk =   0.0088889

                       cryst. coord.
        k(    1) = (  -0.4666667  -0.4666667   0.0000000), wk =   0.0088889
        k(    2) = (  -0.4666667  -0.4000000   0.0000000), wk =   0.0088889
        k(    3) = (  -0.4666667  -0.3333333   0.0000000), wk =   0.0088889
        k(    4) = (  -0.4666667  -0.2666667   0.0000000), wk =   0.0088889
        k(    5) = (  -0.4666667  -0.2000000   0.0000000), wk =   0.0088889
        k(    6) = (  -0.4666667  -0.1333333   0.0000000), wk =   0.0088889
        k(    7) = (  -0.4666667  -0.0666667   0.0000000), wk =   0.0088889
        k(    8) = (  -0.4666667  -0.0000000   0.0000000), wk =   0.0088889
        k(    9) = (  -0.4666667   0.0666667   0.0000000), wk =   0.0088889
        k(   10) = (  -0.4666667   0.1333333   0.0000000), wk =   0.0088889
        k(   11) = (  -0.4666667   0.2000000   0.0000000), wk =   0.0088889
        k(   12) = (  -0.4666667   0.2666667   0.0000000), wk =   0.0088889
        k(   13) = (  -0.4666667   0.3333333   0.0000000), wk =   0.0088889
        k(   14) = (  -0.4666667   0.4000000   0.0000000), wk =   0.0088889
        k(   15) = (  -0.4666667   0.4666667   0.0000000), wk =   0.0088889
        k(   16) = (  -0.4000000  -0.4666667   0.0000000), wk =   0.0088889
        k(   17) = (  -0.4000000  -0.4000000   0.0000000), wk =   0.0088889
        k(   18) = (  -0.4000000  -0.3333333   0.0000000), wk =   0.0088889
        k(   19) = (  -0.4000000  -0.2666667   0.0000000), wk =   0.0088889
        k(   20) = (  -0.4000000  -0.2000000   0.0000000), wk =   0.0088889
        k(   21) = (  -0.4000000  -0.1333333   0.0000000), wk =   0.0088889
        k(   22) = (  -0.4000000  -0.0666667   0.0000000), wk =   0.0088889
        k(   23) = (  -0.4000000  -0.0000000   0.0000000), wk =   0.0088889
        k(   24) = (  -0.4000000   0.0666667   0.0000000), wk =   0.0088889
        k(   25) = (  -0.4000000   0.1333333   0.0000000), wk =   0.0088889
        k(   26) = (  -0.4000000   0.2000000   0.0000000), wk =   0.0088889
        k(   27) = (  -0.4000000   0.2666667   0.0000000), wk =   0.0088889
        k(   28) = (  -0.4000000   0.3333333   0.0000000), wk =   0.0088889
        k(   29) = (  -0.4000000   0.4000000   0.0000000), wk =   0.0088889
        k(   30) = (  -0.4000000   0.4666667   0.0000000), wk =   0.0088889
        k(   31) = (  -0.3333333  -0.4666667   0.0000000), wk =   0.0088889
        k(   32) = (  -0.3333333  -0.4000000   0.0000000), wk =   0.0088889
        k(   33) = (  -0.3333333  -0.3333333   0.0000000), wk =   0.0088889
        k(   34) = (  -0.3333333  -0.2666667   0.0000000), wk =   0.0088889
        k(   35) = (  -0.3333333  -0.2000000   0.0000000), wk =   0.0088889
        k(   36) = (  -0.3333333  -0.1333333   0.0000000), wk =   0.0088889
        k(   37) = (  -0.3333333  -0.0666667   0.0000000), wk =   0.0088889
        k(   38) = (  -0.3333333   0.0000000   0.0000000), wk =   0.0088889
        k(   39) = (  -0.3333333   0.0666667   0.0000000), wk =   0.0088889
        k(   40) = (  -0.3333333   0.1333333   0.0000000), wk =   0.0088889
        k(   41) = (  -0.3333333   0.2000000   0.0000000), wk =   0.0088889
        k(   42) = (  -0.3333333   0.2666667   0.0000000), wk =   0.0088889
        k(   43) = (  -0.3333333   0.3333333   0.0000000), wk =   0.0088889
        k(   44) = (  -0.3333333   0.4000000   0.0000000), wk =   0.0088889
        k(   45) = (  -0.3333333   0.4666667   0.0000000), wk =   0.0088889
        k(   46) = (  -0.2666667  -0.4666667   0.0000000), wk =   0.0088889
        k(   47) = (  -0.2666667  -0.4000000   0.0000000), wk =   0.0088889
        k(   48) = (  -0.2666667  -0.3333333   0.0000000), wk =   0.0088889
        k(   49) = (  -0.2666667  -0.2666667   0.0000000), wk =   0.0088889
        k(   50) = (  -0.2666667  -0.2000000   0.0000000), wk =   0.0088889
        k(   51) = (  -0.2666667  -0.1333333   0.0000000), wk =   0.0088889
        k(   52) = (  -0.2666667  -0.0666667   0.0000000), wk =   0.0088889
        k(   53) = (  -0.2666667  -0.0000000   0.0000000), wk =   0.0088889
        k(   54) = (  -0.2666667   0.0666667   0.0000000), wk =   0.0088889
        k(   55) = (  -0.2666667   0.1333333   0.0000000), wk =   0.0088889
        k(   56) = (  -0.2666667   0.2000000   0.0000000), wk =   0.0088889
        k(   57) = (  -0.2666667   0.2666667   0.0000000), wk =   0.0088889
        k(   58) = (  -0.2666667   0.3333333   0.0000000), wk =   0.0088889
        k(   59) = (  -0.2666667   0.4000000   0.0000000), wk =   0.0088889
        k(   60) = (  -0.2666667   0.4666667   0.0000000), wk =   0.0088889
        k(   61) = (  -0.2000000  -0.4666667   0.0000000), wk =   0.0088889
        k(   62) = (  -0.2000000  -0.4000000   0.0000000), wk =   0.0088889
        k(   63) = (  -0.2000000  -0.3333333   0.0000000), wk =   0.0088889
        k(   64) = (  -0.2000000  -0.2666667   0.0000000), wk =   0.0088889
        k(   65) = (  -0.2000000  -0.2000000   0.0000000), wk =   0.0088889
        k(   66) = (  -0.2000000  -0.1333333   0.0000000), wk =   0.0088889
        k(   67) = (  -0.2000000  -0.0666667   0.0000000), wk =   0.0088889
        k(   68) = (  -0.2000000  -0.0000000   0.0000000), wk =   0.0088889
        k(   69) = (  -0.2000000   0.0666667   0.0000000), wk =   0.0088889
        k(   70) = (  -0.2000000   0.1333333   0.0000000), wk =   0.0088889
        k(   71) = (  -0.2000000   0.2000000   0.0000000), wk =   0.0088889
        k(   72) = (  -0.2000000   0.2666667   0.0000000), wk =   0.0088889
        k(   73) = (  -0.2000000   0.3333333   0.0000000), wk =   0.0088889
        k(   74) = (  -0.2000000   0.4000000   0.0000000), wk =   0.0088889
        k(   75) = (  -0.2000000   0.4666667   0.0000000), wk =   0.0088889
        k(   76) = (  -0.1333333  -0.4666667   0.0000000), wk =   0.0088889
        k(   77) = (  -0.1333333  -0.4000000   0.0000000), wk =   0.0088889
        k(   78) = (  -0.1333333  -0.3333333   0.0000000), wk =   0.0088889
        k(   79) = (  -0.1333333  -0.2666667   0.0000000), wk =   0.0088889
        k(   80) = (  -0.1333333  -0.2000000   0.0000000), wk =   0.0088889
        k(   81) = (  -0.1333333  -0.1333333   0.0000000), wk =   0.0088889
        k(   82) = (  -0.1333333  -0.0666667   0.0000000), wk =   0.0088889
        k(   83) = (  -0.1333333   0.0000000   0.0000000), wk =   0.0088889
        k(   84) = (  -0.1333333   0.0666667   0.0000000), wk =   0.0088889
        k(   85) = (  -0.1333333   0.1333333   0.0000000), wk =   0.0088889
        k(   86) = (  -0.1333333   0.2000000   0.0000000), wk =   0.0088889
        k(   87) = (  -0.1333333   0.2666667   0.0000000), wk =   0.0088889
        k(   88) = (  -0.1333333   0.3333333   0.0000000), wk =   0.0088889
        k(   89) = (  -0.1333333   0.4000000   0.0000000), wk =   0.0088889
        k(   90) = (  -0.1333333   0.4666667   0.0000000), wk =   0.0088889
        k(   91) = (  -0.0666667  -0.4666667   0.0000000), wk =   0.0088889
        k(   92) = (  -0.0666667  -0.4000000   0.0000000), wk =   0.0088889
        k(   93) = (  -0.0666667  -0.3333333   0.0000000), wk =   0.0088889
        k(   94) = (  -0.0666667  -0.2666667   0.0000000), wk =   0.0088889
        k(   95) = (  -0.0666667  -0.2000000   0.0000000), wk =   0.0088889
        k(   96) = (  -0.0666667  -0.1333333   0.0000000), wk =   0.0088889
        k(   97) = (  -0.0666667  -0.0666667   0.0000000), wk =   0.0088889
        k(   98) = (  -0.0666667  -0.0000000   0.0000000), wk =   0.0088889
        k(   99) = (  -0.0666667   0.0666667   0.0000000), wk =   0.0088889
        k(  100) = (  -0.0666667   0.1333333   0.0000000), wk =   0.0088889
        k(  101) = (  -0.0666667   0.2000000   0.0000000), wk =   0.0088889
        k(  102) = (  -0.0666667   0.2666667   0.0000000), wk =   0.0088889
        k(  103) = (  -0.0666667   0.3333333   0.0000000), wk =   0.0088889
        k(  104) = (  -0.0666667   0.4000000   0.0000000), wk =   0.0088889
        k(  105) = (  -0.0666667   0.4666667   0.0000000), wk =   0.0088889
        k(  106) = (   0.0000000  -0.4666667   0.0000000), wk =   0.0088889
        k(  107) = (   0.0000000  -0.4000000   0.0000000), wk =   0.0088889
        k(  108) = (   0.0000000  -0.3333333   0.0000000), wk =   0.0088889
        k(  109) = (   0.0000000  -0.2666667   0.0000000), wk =   0.0088889
        k(  110) = (   0.0000000  -0.2000000   0.0000000), wk =   0.0088889
        k(  111) = (   0.0000000  -0.1333333   0.0000000), wk =   0.0088889
        k(  112) = (   0.0000000  -0.0666667   0.0000000), wk =   0.0088889
        k(  113) = (   0.0000000   0.0000000   0.0000000), wk =   0.0088889
        k(  114) = (   0.0000000   0.0666667   0.0000000), wk =   0.0088889
        k(  115) = (   0.0000000   0.1333333   0.0000000), wk =   0.0088889
        k(  116) = (   0.0000000   0.2000000   0.0000000), wk =   0.0088889
        k(  117) = (   0.0000000   0.2666667   0.0000000), wk =   0.0088889
        k(  118) = (   0.0000000   0.3333333   0.0000000), wk =   0.0088889
        k(  119) = (   0.0000000   0.4000000   0.0000000), wk =   0.0088889
        k(  120) = (   0.0000000   0.4666667   0.0000000), wk =   0.0088889
        k(  121) = (   0.0666667  -0.4666667   0.0000000), wk =   0.0088889
        k(  122) = (   0.0666667  -0.4000000   0.0000000), wk =   0.0088889
        k(  123) = (   0.0666667  -0.3333333   0.0000000), wk =   0.0088889
        k(  124) = (   0.0666667  -0.2666667   0.0000000), wk =   0.0088889
        k(  125) = (   0.0666667  -0.2000000   0.0000000), wk =   0.0088889
        k(  126) = (   0.0666667  -0.1333333   0.0000000), wk =   0.0088889
        k(  127) = (   0.0666667  -0.0666667   0.0000000), wk =   0.0088889
        k(  128) = (   0.0666667   0.0000000   0.0000000), wk =   0.0088889
        k(  129) = (   0.0666667   0.0666667   0.0000000), wk =   0.0088889
        k(  130) = (   0.0666667   0.1333333   0.0000000), wk =   0.0088889
        k(  131) = (   0.0666667   0.2000000   0.0000000), wk =   0.0088889
        k(  132) = (   0.0666667   0.2666667   0.0000000), wk =   0.0088889
        k(  133) = (   0.0666667   0.3333333   0.0000000), wk =   0.0088889
        k(  134) = (   0.0666667   0.4000000   0.0000000), wk =   0.0088889
        k(  135) = (   0.0666667   0.4666667   0.0000000), wk =   0.0088889
        k(  136) = (   0.1333333  -0.4666667   0.0000000), wk =   0.0088889
        k(  137) = (   0.1333333  -0.4000000   0.0000000), wk =   0.0088889
        k(  138) = (   0.1333333  -0.3333333   0.0000000), wk =   0.0088889
        k(  139) = (   0.1333333  -0.2666667   0.0000000), wk =   0.0088889
        k(  140) = (   0.1333333  -0.2000000   0.0000000), wk =   0.0088889
        k(  141) = (   0.1333333  -0.1333333   0.0000000), wk =   0.0088889
        k(  142) = (   0.1333333  -0.0666667   0.0000000), wk =   0.0088889
        k(  143) = (   0.1333333   0.0000000   0.0000000), wk =   0.0088889
        k(  144) = (   0.1333333   0.0666667   0.0000000), wk =   0.0088889
        k(  145) = (   0.1333333   0.1333333   0.0000000), wk =   0.0088889
        k(  146) = (   0.1333333   0.2000000   0.0000000), wk =   0.0088889
        k(  147) = (   0.1333333   0.2666667   0.0000000), wk =   0.0088889
        k(  148) = (   0.1333333   0.3333333   0.0000000), wk =   0.0088889
        k(  149) = (   0.1333333   0.4000000   0.0000000), wk =   0.0088889
        k(  150) = (   0.1333333   0.4666667   0.0000000), wk =   0.0088889
        k(  151) = (   0.2000000  -0.4666667   0.0000000), wk =   0.0088889
        k(  152) = (   0.2000000  -0.4000000   0.0000000), wk =   0.0088889
        k(  153) = (   0.2000000  -0.3333333   0.0000000), wk =   0.0088889
        k(  154) = (   0.2000000  -0.2666667   0.0000000), wk =   0.0088889
        k(  155) = (   0.2000000  -0.2000000   0.0000000), wk =   0.0088889
        k(  156) = (   0.2000000  -0.1333333   0.0000000), wk =   0.0088889
        k(  157) = (   0.2000000  -0.0666667   0.0000000), wk =   0.0088889
        k(  158) = (   0.2000000   0.0000000   0.0000000), wk =   0.0088889
        k(  159) = (   0.2000000   0.0666667   0.0000000), wk =   0.0088889
        k(  160) = (   0.2000000   0.1333333   0.0000000), wk =   0.0088889
        k(  161) = (   0.2000000   0.2000000   0.0000000), wk =   0.0088889
        k(  162) = (   0.2000000   0.2666667   0.0000000), wk =   0.0088889
        k(  163) = (   0.2000000   0.3333333   0.0000000), wk =   0.0088889
        k(  164) = (   0.2000000   0.4000000   0.0000000), wk =   0.0088889
        k(  165) = (   0.2000000   0.4666667   0.0000000), wk =   0.0088889
        k(  166) = (   0.2666667  -0.4666667   0.0000000), wk =   0.0088889
        k(  167) = (   0.2666667  -0.4000000   0.0000000), wk =   0.0088889
        k(  168) = (   0.2666667  -0.3333333   0.0000000), wk =   0.0088889
        k(  169) = (   0.2666667  -0.2666667   0.0000000), wk =   0.0088889
        k(  170) = (   0.2666667  -0.2000000   0.0000000), wk =   0.0088889
        k(  171) = (   0.2666667  -0.1333333   0.0000000), wk =   0.0088889
        k(  172) = (   0.2666667  -0.0666667   0.0000000), wk =   0.0088889
        k(  173) = (   0.2666667   0.0000000   0.0000000), wk =   0.0088889
        k(  174) = (   0.2666667   0.0666667   0.0000000), wk =   0.0088889
        k(  175) = (   0.2666667   0.1333333   0.0000000), wk =   0.0088889
        k(  176) = (   0.2666667   0.2000000   0.0000000), wk =   0.0088889
        k(  177) = (   0.2666667   0.2666667   0.0000000), wk =   0.0088889
        k(  178) = (   0.2666667   0.3333333   0.0000000), wk =   0.0088889
        k(  179) = (   0.2666667   0.4000000   0.0000000), wk =   0.0088889
        k(  180) = (   0.2666667   0.4666667   0.0000000), wk =   0.0088889
        k(  181) = (   0.3333333  -0.4666667   0.0000000), wk =   0.0088889
        k(  182) = (   0.3333333  -0.4000000   0.0000000), wk =   0.0088889
        k(  183) = (   0.3333333  -0.3333333   0.0000000), wk =   0.0088889
        k(  184) = (   0.3333333  -0.2666667   0.0000000), wk =   0.0088889
        k(  185) = (   0.3333333  -0.2000000   0.0000000), wk =   0.0088889
        k(  186) = (   0.3333333  -0.1333333   0.0000000), wk =   0.0088889
        k(  187) = (   0.3333333  -0.0666667   0.0000000), wk =   0.0088889
        k(  188) = (   0.3333333  -0.0000000   0.0000000), wk =   0.0088889
        k(  189) = (   0.3333333   0.0666667   0.0000000), wk =   0.0088889
        k(  190) = (   0.3333333   0.1333333   0.0000000), wk =   0.0088889
        k(  191) = (   0.3333333   0.2000000   0.0000000), wk =   0.0088889
        k(  192) = (   0.3333333   0.2666667   0.0000000), wk =   0.0088889
        k(  193) = (   0.3333333   0.3333333   0.0000000), wk =   0.0088889
        k(  194) = (   0.3333333   0.4000000   0.0000000), wk =   0.0088889
        k(  195) = (   0.3333333   0.4666667   0.0000000), wk =   0.0088889
        k(  196) = (   0.4000000  -0.4666667   0.0000000), wk =   0.0088889
        k(  197) = (   0.4000000  -0.4000000   0.0000000), wk =   0.0088889
        k(  198) = (   0.4000000  -0.3333333   0.0000000), wk =   0.0088889
        k(  199) = (   0.4000000  -0.2666667   0.0000000), wk =   0.0088889
        k(  200) = (   0.4000000  -0.2000000   0.0000000), wk =   0.0088889
        k(  201) = (   0.4000000  -0.1333333   0.0000000), wk =   0.0088889
        k(  202) = (   0.4000000  -0.0666667   0.0000000), wk =   0.0088889
        k(  203) = (   0.4000000   0.0000000   0.0000000), wk =   0.0088889
        k(  204) = (   0.4000000   0.0666667   0.0000000), wk =   0.0088889
        k(  205) = (   0.4000000   0.1333333   0.0000000), wk =   0.0088889
        k(  206) = (   0.4000000   0.2000000   0.0000000), wk =   0.0088889
        k(  207) = (   0.4000000   0.2666667   0.0000000), wk =   0.0088889
        k(  208) = (   0.4000000   0.3333333   0.0000000), wk =   0.0088889
        k(  209) = (   0.4000000   0.4000000   0.0000000), wk =   0.0088889
        k(  210) = (   0.4000000   0.4666667   0.0000000), wk =   0.0088889
        k(  211) = (   0.4666667  -0.4666667   0.0000000), wk =   0.0088889
        k(  212) = (   0.4666667  -0.4000000   0.0000000), wk =   0.0088889
        k(  213) = (   0.4666667  -0.3333333   0.0000000), wk =   0.0088889
        k(  214) = (   0.4666667  -0.2666667   0.0000000), wk =   0.0088889
        k(  215) = (   0.4666667  -0.2000000   0.0000000), wk =   0.0088889
        k(  216) = (   0.4666667  -0.1333333   0.0000000), wk =   0.0088889
        k(  217) = (   0.4666667  -0.0666667   0.0000000), wk =   0.0088889
        k(  218) = (   0.4666667   0.0000000   0.0000000), wk =   0.0088889
        k(  219) = (   0.4666667   0.0666667   0.0000000), wk =   0.0088889
        k(  220) = (   0.4666667   0.1333333   0.0000000), wk =   0.0088889
        k(  221) = (   0.4666667   0.2000000   0.0000000), wk =   0.0088889
        k(  222) = (   0.4666667   0.2666667   0.0000000), wk =   0.0088889
        k(  223) = (   0.4666667   0.3333333   0.0000000), wk =   0.0088889
        k(  224) = (   0.4666667   0.4000000   0.0000000), wk =   0.0088889
        k(  225) = (   0.4666667   0.4666667   0.0000000), wk =   0.0088889

     Dense  grid:   107081 G-vectors     FFT dimensions: (  27,  27, 324)

     Dynamical RAM for                 wfc:       0.17 MB

     Dynamical RAM for     wfc (w. buffer):       0.17 MB

     Dynamical RAM for           str. fact:       0.12 MB

     Dynamical RAM for           local pot:       0.00 MB

     Dynamical RAM for          nlocal pot:       0.43 MB

     Dynamical RAM for                qrad:       3.41 MB

     Dynamical RAM for          rho,v,vnew:       0.25 MB

     Dynamical RAM for           G-vectors:       0.17 MB

     Dynamical RAM for          h,s,v(r/c):       0.24 MB

     Dynamical RAM for          <psi|beta>:       0.05 MB

     Dynamical RAM for                 psi:       0.35 MB

     Dynamical RAM for                hpsi:       0.35 MB

     Dynamical RAM for      wfcinit/wfcrot:       0.38 MB

     Estimated static dynamical RAM per process >       4.92 MB

     Estimated max dynamical RAM per process >       5.90 MB

     Estimated total dynamical RAM >     247.83 MB

     Atomic positions and unit cell read from directory:
     ./calc.save/


     The potential is recalculated from file :
     ./calc.save/charge-density

     Starting wfcs are random

     Band Structure Calculation
     Davidson diagonalization with overlap

     Computing kpt #:     1  of   225
     total cpu time spent up to now is        2.3 secs

     Computing kpt #:     2  of   225
     total cpu time spent up to now is        3.6 secs

     Computing kpt #:     3  of   225
     total cpu time spent up to now is        4.9 secs

     Computing kpt #:     4  of   225
     total cpu time spent up to now is        6.2 secs

     Computing kpt #:     5  of   225
     total cpu time spent up to now is        7.5 secs

     Computing kpt #:     6  of   225
     total cpu time spent up to now is        8.7 secs

     Computing kpt #:     7  of   225
     total cpu time spent up to now is       10.0 secs

     Computing kpt #:     8  of   225
     total cpu time spent up to now is       11.5 secs

     Computing kpt #:     9  of   225
     total cpu time spent up to now is       15.9 secs

     Computing kpt #:    10  of   225
     total cpu time spent up to now is       17.2 secs

     Computing kpt #:    11  of   225
     total cpu time spent up to now is       18.7 secs

     Computing kpt #:    12  of   225
     total cpu time spent up to now is       20.2 secs

     Computing kpt #:    13  of   225
     total cpu time spent up to now is       21.5 secs

     Computing kpt #:    14  of   225
     total cpu time spent up to now is       22.8 secs

     Computing kpt #:    15  of   225
     total cpu time spent up to now is       24.1 secs

     Computing kpt #:    16  of   225
     total cpu time spent up to now is       25.4 secs

     Computing kpt #:    17  of   225
     total cpu time spent up to now is       26.6 secs

     Computing kpt #:    18  of   225
     total cpu time spent up to now is       28.0 secs

     Computing kpt #:    19  of   225
     total cpu time spent up to now is       29.3 secs

     Computing kpt #:    20  of   225
     total cpu time spent up to now is       30.6 secs

     Computing kpt #:    21  of   225
     total cpu time spent up to now is       31.8 secs

     Computing kpt #:    22  of   225
     total cpu time spent up to now is       33.1 secs

     Computing kpt #:    23  of   225
     total cpu time spent up to now is       34.5 secs

     Computing kpt #:    24  of   225
     total cpu time spent up to now is       36.0 secs

     Computing kpt #:    25  of   225
     total cpu time spent up to now is       37.6 secs

     Computing kpt #:    26  of   225
     total cpu time spent up to now is       39.0 secs

     Computing kpt #:    27  of   225
     total cpu time spent up to now is       40.4 secs

     Computing kpt #:    28  of   225
     total cpu time spent up to now is       41.9 secs

     Computing kpt #:    29  of   225
     total cpu time spent up to now is       43.3 secs

     Computing kpt #:    30  of   225
     total cpu time spent up to now is       44.7 secs

     Computing kpt #:    31  of   225
     total cpu time spent up to now is       46.0 secs

     Computing kpt #:    32  of   225
     total cpu time spent up to now is       47.3 secs

     Computing kpt #:    33  of   225
     total cpu time spent up to now is       48.7 secs

     Computing kpt #:    34  of   225
     total cpu time spent up to now is       50.0 secs

     Computing kpt #:    35  of   225
     total cpu time spent up to now is       51.2 secs

     Computing kpt #:    36  of   225
     total cpu time spent up to now is       52.5 secs

     Computing kpt #:    37  of   225
     total cpu time spent up to now is       54.1 secs

     Computing kpt #:    38  of   225
     total cpu time spent up to now is       55.5 secs

     Computing kpt #:    39  of   225
     total cpu time spent up to now is       56.9 secs

     Computing kpt #:    40  of   225
     total cpu time spent up to now is       58.2 secs

     Computing kpt #:    41  of   225
     total cpu time spent up to now is       59.5 secs

     Computing kpt #:    42  of   225
     total cpu time spent up to now is       60.8 secs

     Computing kpt #:    43  of   225
     total cpu time spent up to now is       62.2 secs

     Computing kpt #:    44  of   225
     total cpu time spent up to now is       63.8 secs

     Computing kpt #:    45  of   225
     total cpu time spent up to now is       65.1 secs

     Computing kpt #:    46  of   225
     total cpu time spent up to now is       66.4 secs

     Computing kpt #:    47  of   225
     total cpu time spent up to now is       67.7 secs

     Computing kpt #:    48  of   225
     total cpu time spent up to now is       69.0 secs

     Computing kpt #:    49  of   225
     total cpu time spent up to now is       70.2 secs

     Computing kpt #:    50  of   225
     total cpu time spent up to now is       74.3 secs

     Computing kpt #:    51  of   225
     total cpu time spent up to now is       75.7 secs

     Computing kpt #:    52  of   225
     total cpu time spent up to now is       77.0 secs

     Computing kpt #:    53  of   225
     total cpu time spent up to now is       78.4 secs

     Computing kpt #:    54  of   225
     total cpu time spent up to now is       79.7 secs

     Computing kpt #:    55  of   225
     total cpu time spent up to now is       81.0 secs

     Computing kpt #:    56  of   225
     total cpu time spent up to now is       82.4 secs

     Computing kpt #:    57  of   225
     total cpu time spent up to now is       83.8 secs

     Computing kpt #:    58  of   225
     total cpu time spent up to now is       85.1 secs

     Computing kpt #:    59  of   225
     total cpu time spent up to now is       86.6 secs

     Computing kpt #:    60  of   225
     total cpu time spent up to now is       88.1 secs

     Computing kpt #:    61  of   225
     total cpu time spent up to now is       89.3 secs

     Computing kpt #:    62  of   225
     total cpu time spent up to now is       90.5 secs

     Computing kpt #:    63  of   225
     total cpu time spent up to now is       91.8 secs

     Computing kpt #:    64  of   225
     total cpu time spent up to now is       93.3 secs

     Computing kpt #:    65  of   225
     total cpu time spent up to now is       94.6 secs

     Computing kpt #:    66  of   225
     total cpu time spent up to now is       95.9 secs

     Computing kpt #:    67  of   225
     total cpu time spent up to now is       97.2 secs

     Computing kpt #:    68  of   225
     total cpu time spent up to now is       98.6 secs

     Computing kpt #:    69  of   225
     total cpu time spent up to now is       99.9 secs

     Computing kpt #:    70  of   225
     total cpu time spent up to now is      101.2 secs

     Computing kpt #:    71  of   225
     total cpu time spent up to now is      102.6 secs

     Computing kpt #:    72  of   225
     total cpu time spent up to now is      103.9 secs

     Computing kpt #:    73  of   225
     total cpu time spent up to now is      105.2 secs

     Computing kpt #:    74  of   225
     total cpu time spent up to now is      106.5 secs

     Computing kpt #:    75  of   225
     total cpu time spent up to now is      107.9 secs

     Computing kpt #:    76  of   225
     total cpu time spent up to now is      109.1 secs

     Computing kpt #:    77  of   225
     total cpu time spent up to now is      110.3 secs

     Computing kpt #:    78  of   225
     total cpu time spent up to now is      111.7 secs

     Computing kpt #:    79  of   225
     total cpu time spent up to now is      113.1 secs

     Computing kpt #:    80  of   225
     total cpu time spent up to now is      114.4 secs

     Computing kpt #:    81  of   225
     total cpu time spent up to now is      115.7 secs

     Computing kpt #:    82  of   225
     total cpu time spent up to now is      117.0 secs

     Computing kpt #:    83  of   225
     total cpu time spent up to now is      118.5 secs

     Computing kpt #:    84  of   225
     total cpu time spent up to now is      119.9 secs

     Computing kpt #:    85  of   225
     total cpu time spent up to now is      121.3 secs

     Computing kpt #:    86  of   225
     total cpu time spent up to now is      122.7 secs

     Computing kpt #:    87  of   225
     total cpu time spent up to now is      124.1 secs

     Computing kpt #:    88  of   225
     total cpu time spent up to now is      125.4 secs

     Computing kpt #:    89  of   225
     total cpu time spent up to now is      126.9 secs

     Computing kpt #:    90  of   225
     total cpu time spent up to now is      128.2 secs

     Computing kpt #:    91  of   225
     total cpu time spent up to now is      129.4 secs

     Computing kpt #:    92  of   225
     total cpu time spent up to now is      130.7 secs

     Computing kpt #:    93  of   225
     total cpu time spent up to now is      132.3 secs

     Computing kpt #:    94  of   225
     total cpu time spent up to now is      133.6 secs

     Computing kpt #:    95  of   225
     total cpu time spent up to now is      134.9 secs

     Computing kpt #:    96  of   225
     total cpu time spent up to now is      136.2 secs

     Computing kpt #:    97  of   225
     total cpu time spent up to now is      137.5 secs

     Computing kpt #:    98  of   225
     total cpu time spent up to now is      139.0 secs

     Computing kpt #:    99  of   225
     total cpu time spent up to now is      140.3 secs

     Computing kpt #:   100  of   225
     total cpu time spent up to now is      141.9 secs

     Computing kpt #:   101  of   225
     total cpu time spent up to now is      143.4 secs

     Computing kpt #:   102  of   225
     total cpu time spent up to now is      145.7 secs

     Computing kpt #:   103  of   225
     total cpu time spent up to now is      147.5 secs

     Computing kpt #:   104  of   225
     total cpu time spent up to now is      151.3 secs

     Computing kpt #:   105  of   225
     total cpu time spent up to now is      152.6 secs

     Computing kpt #:   106  of   225
     total cpu time spent up to now is      153.9 secs

     Computing kpt #:   107  of   225
     total cpu time spent up to now is      155.2 secs

     Computing kpt #:   108  of   225
     total cpu time spent up to now is      156.5 secs

     Computing kpt #:   109  of   225
     total cpu time spent up to now is      157.8 secs

     Computing kpt #:   110  of   225
     total cpu time spent up to now is      159.1 secs

     Computing kpt #:   111  of   225
     total cpu time spent up to now is      161.0 secs

     Computing kpt #:   112  of   225
     total cpu time spent up to now is      163.1 secs

     Computing kpt #:   113  of   225
     total cpu time spent up to now is      164.5 secs

     Computing kpt #:   114  of   225
     total cpu time spent up to now is      165.9 secs

     Computing kpt #:   115  of   225
     total cpu time spent up to now is      167.2 secs

     Computing kpt #:   116  of   225
     total cpu time spent up to now is      168.6 secs

     Computing kpt #:   117  of   225
     total cpu time spent up to now is      170.0 secs

     Computing kpt #:   118  of   225
     total cpu time spent up to now is      171.6 secs

     Computing kpt #:   119  of   225
     total cpu time spent up to now is      173.1 secs

     Computing kpt #:   120  of   225
     total cpu time spent up to now is      175.4 secs

     Computing kpt #:   121  of   225
     total cpu time spent up to now is      177.7 secs

     Computing kpt #:   122  of   225
     total cpu time spent up to now is      181.5 secs

     Computing kpt #:   123  of   225
     total cpu time spent up to now is      182.9 secs

     Computing kpt #:   124  of   225
     total cpu time spent up to now is      184.3 secs

     Computing kpt #:   125  of   225
     total cpu time spent up to now is      186.0 secs

     Computing kpt #:   126  of   225
     total cpu time spent up to now is      188.3 secs

     Computing kpt #:   127  of   225
     total cpu time spent up to now is      189.9 secs

     Computing kpt #:   128  of   225
     total cpu time spent up to now is      192.9 secs

     Computing kpt #:   129  of   225
     total cpu time spent up to now is      194.4 secs

     Computing kpt #:   130  of   225
     total cpu time spent up to now is      195.7 secs

     Computing kpt #:   131  of   225
     total cpu time spent up to now is      197.0 secs

     Computing kpt #:   132  of   225
     total cpu time spent up to now is      198.3 secs

     Computing kpt #:   133  of   225
     total cpu time spent up to now is      200.1 secs

     Computing kpt #:   134  of   225
     total cpu time spent up to now is      201.4 secs

     Computing kpt #:   135  of   225
     total cpu time spent up to now is      202.6 secs

     Computing kpt #:   136  of   225
     total cpu time spent up to now is      204.0 secs

     Computing kpt #:   137  of   225
     total cpu time spent up to now is      205.3 secs

     Computing kpt #:   138  of   225
     total cpu time spent up to now is      206.7 secs

     Computing kpt #:   139  of   225
     total cpu time spent up to now is      209.1 secs

     Computing kpt #:   140  of   225
     total cpu time spent up to now is      210.5 secs

     Computing kpt #:   141  of   225
     total cpu time spent up to now is      211.9 secs

     Computing kpt #:   142  of   225
     total cpu time spent up to now is      213.5 secs

     Computing kpt #:   143  of   225
     total cpu time spent up to now is      214.8 secs

     Computing kpt #:   144  of   225
     total cpu time spent up to now is      216.0 secs

     Computing kpt #:   145  of   225
     total cpu time spent up to now is      217.5 secs

     Computing kpt #:   146  of   225
     total cpu time spent up to now is      218.8 secs

     Computing kpt #:   147  of   225
     total cpu time spent up to now is      220.2 secs

     Computing kpt #:   148  of   225
     total cpu time spent up to now is      221.5 secs

     Computing kpt #:   149  of   225
     total cpu time spent up to now is      222.7 secs

     Computing kpt #:   150  of   225
     total cpu time spent up to now is      223.9 secs

     Computing kpt #:   151  of   225
     total cpu time spent up to now is      225.4 secs

     Computing kpt #:   152  of   225
     total cpu time spent up to now is      226.7 secs

     Computing kpt #:   153  of   225
     total cpu time spent up to now is      228.0 secs

     Computing kpt #:   154  of   225
     total cpu time spent up to now is      229.3 secs

     Computing kpt #:   155  of   225
     total cpu time spent up to now is      230.6 secs

     Computing kpt #:   156  of   225
     total cpu time spent up to now is      232.0 secs

     Computing kpt #:   157  of   225
     total cpu time spent up to now is      233.3 secs

     Computing kpt #:   158  of   225
     total cpu time spent up to now is      234.6 secs

     Computing kpt #:   159  of   225
     total cpu time spent up to now is      235.9 secs

     Computing kpt #:   160  of   225
     total cpu time spent up to now is      237.1 secs

     Computing kpt #:   161  of   225
     total cpu time spent up to now is      238.6 secs

     Computing kpt #:   162  of   225
     total cpu time spent up to now is      240.0 secs

     Computing kpt #:   163  of   225
     total cpu time spent up to now is      241.3 secs

     Computing kpt #:   164  of   225
     total cpu time spent up to now is      242.5 secs

     Computing kpt #:   165  of   225
     total cpu time spent up to now is      243.7 secs

     Computing kpt #:   166  of   225
     total cpu time spent up to now is      245.3 secs

     Computing kpt #:   167  of   225
     total cpu time spent up to now is      247.2 secs

     Computing kpt #:   168  of   225
     total cpu time spent up to now is      248.5 secs

     Computing kpt #:   169  of   225
     total cpu time spent up to now is      249.8 secs

     Computing kpt #:   170  of   225
     total cpu time spent up to now is      251.1 secs

     Computing kpt #:   171  of   225
     total cpu time spent up to now is      252.6 secs

     Computing kpt #:   172  of   225
     total cpu time spent up to now is      253.9 secs

     Computing kpt #:   173  of   225
     total cpu time spent up to now is      255.2 secs

     Computing kpt #:   174  of   225
     total cpu time spent up to now is      256.5 secs

     Computing kpt #:   175  of   225
     total cpu time spent up to now is      257.9 secs

     Computing kpt #:   176  of   225
     total cpu time spent up to now is      259.4 secs

     Computing kpt #:   177  of   225
     total cpu time spent up to now is      260.7 secs

     Computing kpt #:   178  of   225
     total cpu time spent up to now is      262.0 secs

     Computing kpt #:   179  of   225
     total cpu time spent up to now is      263.3 secs

     Computing kpt #:   180  of   225
     total cpu time spent up to now is      264.6 secs

     Computing kpt #:   181  of   225
     total cpu time spent up to now is      265.9 secs

     Computing kpt #:   182  of   225
     total cpu time spent up to now is      267.4 secs

     Computing kpt #:   183  of   225
     total cpu time spent up to now is      268.8 secs

     Computing kpt #:   184  of   225
     total cpu time spent up to now is      270.1 secs

     Computing kpt #:   185  of   225
     total cpu time spent up to now is      271.6 secs

     Computing kpt #:   186  of   225
     total cpu time spent up to now is      273.1 secs

     Computing kpt #:   187  of   225
     total cpu time spent up to now is      274.4 secs

     Computing kpt #:   188  of   225
     total cpu time spent up to now is      275.7 secs

     Computing kpt #:   189  of   225
     total cpu time spent up to now is      277.2 secs

     Computing kpt #:   190  of   225
     total cpu time spent up to now is      278.5 secs

     Computing kpt #:   191  of   225
     total cpu time spent up to now is      279.8 secs

     Computing kpt #:   192  of   225
     total cpu time spent up to now is      281.0 secs

     Computing kpt #:   193  of   225
     total cpu time spent up to now is      282.5 secs

     Computing kpt #:   194  of   225
     total cpu time spent up to now is      284.8 secs

     Computing kpt #:   195  of   225
     total cpu time spent up to now is      286.1 secs

     Computing kpt #:   196  of   225
     total cpu time spent up to now is      287.3 secs

     Computing kpt #:   197  of   225
     total cpu time spent up to now is      288.6 secs

     Computing kpt #:   198  of   225
     total cpu time spent up to now is      290.1 secs

     Computing kpt #:   199  of   225
     total cpu time spent up to now is      291.5 secs

     Computing kpt #:   200  of   225
     total cpu time spent up to now is      292.8 secs

     Computing kpt #:   201  of   225
     total cpu time spent up to now is      294.3 secs

     Computing kpt #:   202  of   225
     total cpu time spent up to now is      295.8 secs

     Computing kpt #:   203  of   225
     total cpu time spent up to now is      297.2 secs

     Computing kpt #:   204  of   225
     total cpu time spent up to now is      298.5 secs

     Computing kpt #:   205  of   225
     total cpu time spent up to now is      299.7 secs

     Computing kpt #:   206  of   225
     total cpu time spent up to now is      301.0 secs

     Computing kpt #:   207  of   225
     total cpu time spent up to now is      302.3 secs

     Computing kpt #:   208  of   225
     total cpu time spent up to now is      303.6 secs

     Computing kpt #:   209  of   225
     total cpu time spent up to now is      304.9 secs

     Computing kpt #:   210  of   225
     total cpu time spent up to now is      306.1 secs

     Computing kpt #:   211  of   225
     total cpu time spent up to now is      307.3 secs

     Computing kpt #:   212  of   225
     total cpu time spent up to now is      308.6 secs

     Computing kpt #:   213  of   225
     total cpu time spent up to now is      309.9 secs

     Computing kpt #:   214  of   225
     total cpu time spent up to now is      311.5 secs

     Computing kpt #:   215  of   225
     total cpu time spent up to now is      312.9 secs

     Computing kpt #:   216  of   225
     total cpu time spent up to now is      314.3 secs

     Computing kpt #:   217  of   225
     total cpu time spent up to now is      315.6 secs

     Computing kpt #:   218  of   225
     total cpu time spent up to now is      316.8 secs

     Computing kpt #:   219  of   225
     total cpu time spent up to now is      318.1 secs

     Computing kpt #:   220  of   225
     total cpu time spent up to now is      319.4 secs

     Computing kpt #:   221  of   225
     total cpu time spent up to now is      320.7 secs

     Computing kpt #:   222  of   225
     total cpu time spent up to now is      322.0 secs

     Computing kpt #:   223  of   225
     total cpu time spent up to now is      323.2 secs

     Computing kpt #:   224  of   225
     total cpu time spent up to now is      324.5 secs

     Computing kpt #:   225  of   225
     total cpu time spent up to now is      325.8 secs

     ethr =  1.41E-10,  avg # of iterations = 57.4

     total cpu time spent up to now is      325.8 secs

     End of band structure calculation

          k =-0.1470-0.2545 0.0000 ( 13368 PWs)   bands (ev):

   -61.2081 -60.5071 -35.5447 -35.3145 -35.2702 -34.8745 -34.7224 -34.5933
   -12.5426 -12.4166 -12.3621 -12.3224  -6.0875  -5.9934  -5.2647  -5.1588
    -4.3926  -3.9629  -3.4786  -2.8337  -2.3493  -1.9739  -1.6776  -1.0706
    -0.8316  -0.1838   1.9091   2.3887   2.4590   2.7950   3.4670   3.6700
     4.0935   4.2636   5.8173   6.1613

     occupation numbers 
     1.0000   1.0000   1.0000   1.0000   1.0000   1.0000   1.0000   1.0000
     1.0000   1.0000   1.0000   1.0000   1.0000   1.0000   1.0000   1.0000
     1.0000   1.0000   1.0000   1.0000   1.0000   1.0000   1.0000   1.0000
     1.0000   1.0000   0.0000   0.0000   0.0000   0.0000   0.0000   0.0000
     0.0000   0.0000   0.0000   0.0000

          k =-0.1470-0.2303 0.0000 ( 13368 PWs)   bands (ev):

   -61.2073 -60.5063 -35.5266 -35.3130 -35.2979 -34.8560 -34.7208 -34.6217
   -12.5082 -12.3841 -12.3266 -12.2895  -5.8772  -5.7651  -5.3195  -5.1728
    -4.3262  -3.8730  -3.5172  -3.0459  -2.3650  -2.2806  -1.9364  -1.8176
    -0.7420  -0.1486   1.8559   2.3304   2.5337   2.9440   3.1949   3.5473
     3.8027   4.4577   6.0604   6.4803

     occupation numbers 
     1.0000   1.0000   1.0000   1.0000   1.0000   1.0000   1.0000   1.0000
     1.0000   1.0000   1.0000   1.0000   1.0000   1.0000   1.0000   1.0000
     1.0000   1.0000   1.0000   1.0000   1.0000   1.0000   1.0000   1.0000
     1.0000   1.0000   0.0000   0.0000   0.0000   0.0000   0.0000   0.0000
     0.0000   0.0000   0.0000   0.0000

          k =-0.1470-0.2060 0.0000 ( 13361 PWs)   bands (ev):

   -61.2068 -60.5058 -35.4990 -35.3323 -35.3120 -34.8277 -34.7197 -34.6570
   -12.4907 -12.3631 -12.3064 -12.2640  -5.5894  -5.4387  -5.3642  -5.1293
    -4.1988  -3.7290  -3.5531  -3.2346  -3.0487  -2.6404  -2.2269  -1.8832
    -0.7208  -0.1676   1.7429   2.2162   2.6183   2.7969   3.0156   3.1570
     4.0478   4.7706   6.5093   6.9737

     occupation numbers 
     1.0000   1.0000   1.0000   1.0000   1.0000   1.0000   1.0000   1.0000
     1.0000   1.0000   1.0000   1.0000   1.0000   1.0000   1.0000   1.0000
     1.0000   1.0000   1.0000   1.0000   1.0000   1.0000   1.0000   1.0000
     1.0000   1.0000   0.0000   0.0000   0.0000   0.0000   0.0000   0.0000
     0.0000   0.0000   0.0000   0.0000

          k =-0.1470-0.1818 0.0000 ( 13355 PWs)   bands (ev):

   -61.2066 -60.5057 -35.4828 -35.3510 -35.3117 -34.8111 -34.7193 -34.6762
   -12.4857 -12.3559 -12.3001 -12.2544  -5.4575  -5.4076  -5.2081  -5.0976
    -4.0562  -3.6300  -3.5616  -3.4409  -3.2290  -3.1401  -2.2078  -1.8522
    -0.7200  -0.1807   1.6862   2.1584   2.6475   2.6842   2.8204   3.1963
     4.1608   4.9014   6.9778   7.1025

     occupation numbers 
     1.0000   1.0000   1.0000   1.0000   1.0000   1.0000   1.0000   1.0000
     1.0000   1.0000   1.0000   1.0000   1.0000   1.0000   1.0000   1.0000
     1.0000   1.0000   1.0000   1.0000   1.0000   1.0000   1.0000   1.0000
     1.0000   1.0000   0.0000   0.0000   0.0000   0.0000   0.0000   0.0000
     0.0000   0.0000   0.0000   0.0000

          k =-0.1470-0.1576 0.0000 ( 13361 PWs)   bands (ev):

   -61.2068 -60.5058 -35.4990 -35.3323 -35.3120 -34.8277 -34.7197 -34.6570
   -12.4907 -12.3631 -12.3064 -12.2640  -5.5894  -5.4387  -5.3642  -5.1293
    -4.1988  -3.7290  -3.5531  -3.2346  -3.0487  -2.6404  -2.2269  -1.8832
    -0.7208  -0.1676   1.7429   2.2162   2.6183   2.7969   3.0156   3.1570
     4.0478   4.7706   6.5093   6.9737

     occupation numbers 
     1.0000   1.0000   1.0000   1.0000   1.0000   1.0000   1.0000   1.0000
     1.0000   1.0000   1.0000   1.0000   1.0000   1.0000   1.0000   1.0000
     1.0000   1.0000   1.0000   1.0000   1.0000   1.0000   1.0000   1.0000
     1.0000   1.0000   0.0000   0.0000   0.0000   0.0000   0.0000   0.0000
     0.0000   0.0000   0.0000   0.0000

          k =-0.1470-0.1333 0.0000 ( 13368 PWs)   bands (ev):

   -61.2073 -60.5063 -35.5266 -35.3130 -35.2979 -34.8560 -34.7208 -34.6217
   -12.5082 -12.3841 -12.3266 -12.2895  -5.8772  -5.7651  -5.3195  -5.1728
    -4.3262  -3.8730  -3.5172  -3.0459  -2.3650  -2.2806  -1.9364  -1.8176
    -0.7420  -0.1486   1.8559   2.3304   2.5337   2.9440   3.1949   3.5473
     3.8027   4.4577   6.0604   6.4803

     occupation numbers 
     1.0000   1.0000   1.0000   1.0000   1.0000   1.0000   1.0000   1.0000
     1.0000   1.0000   1.0000   1.0000   1.0000   1.0000   1.0000   1.0000
     1.0000   1.0000   1.0000   1.0000   1.0000   1.0000   1.0000   1.0000
     1.0000   1.0000   0.0000   0.0000   0.0000   0.0000   0.0000   0.0000
     0.0000   0.0000   0.0000   0.0000

          k =-0.1470-0.1091 0.0000 ( 13368 PWs)   bands (ev):

   -61.2081 -60.5071 -35.5447 -35.3145 -35.2702 -34.8745 -34.7224 -34.5933
   -12.5426 -12.4166 -12.3621 -12.3224  -6.0875  -5.9934  -5.2647  -5.1588
    -4.3926  -3.9629  -3.4786  -2.8337  -2.3493  -1.9739  -1.6776  -1.0706
    -0.8316  -0.1838   1.9091   2.3887   2.4590   2.7950   3.4670   3.6700
     4.0935   4.2636   5.8173   6.1613

     occupation numbers 
     1.0000   1.0000   1.0000   1.0000   1.0000   1.0000   1.0000   1.0000
     1.0000   1.0000   1.0000   1.0000   1.0000   1.0000   1.0000   1.0000
     1.0000   1.0000   1.0000   1.0000   1.0000   1.0000   1.0000   1.0000
     1.0000   1.0000   0.0000   0.0000   0.0000   0.0000   0.0000   0.0000
     0.0000   0.0000   0.0000   0.0000

          k =-0.1470-0.0848 0.0000 ( 13390 PWs)   bands (ev):

   -61.2089 -60.5080 -35.5458 -35.3162 -35.2589 -34.8757 -34.7242 -34.5817
   -12.5943 -12.4615 -12.4055 -12.3530  -6.1222  -6.0153  -5.2172  -5.0978
    -4.3997  -3.9843  -3.4388  -2.6959  -2.3933  -1.9741  -1.3092  -1.0556
    -0.6998  -0.2824   1.8968   2.3450   2.4378   2.6845   3.3958   3.8261
     3.9877   4.5649   5.8274   6.1772

     occupation numbers 
     1.0000   1.0000   1.0000   1.0000   1.0000   1.0000   1.0000   1.0000
     1.0000   1.0000   1.0000   1.0000   1.0000   1.0000   1.0000   1.0000
     1.0000   1.0000   1.0000   1.0000   1.0000   1.0000   1.0000   1.0000
     1.0000   1.0000   0.0000   0.0000   0.0000   0.0000   0.0000   0.0000
     0.0000   0.0000   0.0000   0.0000

          k =-0.1470-0.0606 0.0000 ( 13363 PWs)   bands (ev):

   -61.2097 -60.5088 -35.5296 -35.3179 -35.2661 -34.8591 -34.7260 -34.5892
   -12.6547 -12.5208 -12.4400 -12.3749  -5.9796  -5.8274  -5.1432  -5.0175
    -4.3416  -3.9280  -3.4514  -2.8160  -2.2825  -1.9016  -1.7223  -1.1493
    -0.9317  -0.2600   1.8708   2.2474   2.4068   2.7028   3.3296   3.7057
     3.9502   4.3665   6.1126   6.5428

     occupation numbers 
     1.0000   1.0000   1.0000   1.0000   1.0000   1.0000   1.0000   1.0000
     1.0000   1.0000   1.0000   1.0000   1.0000   1.0000   1.0000   1.0000
     1.0000   1.0000   1.0000   1.0000   1.0000   1.0000   1.0000   1.0000
     1.0000   1.0000   0.0000   0.0000   0.0000   0.0000   0.0000   0.0000
     0.0000   0.0000   0.0000   0.0000

          k =-0.1470-0.0364 0.0000 ( 13357 PWs)   bands (ev):

   -61.2104 -60.5094 -35.5019 -35.3192 -35.2874 -34.8307 -34.7275 -34.6110
   -12.7086 -12.5775 -12.4618 -12.3871  -5.7277  -5.5006  -5.0777  -4.8773
    -4.2231  -3.8058  -3.5450  -3.0802  -2.3795  -2.1008  -1.8592  -1.7026
    -0.9253  -0.3029   1.7628   2.1805   2.3490   2.8024   2.9971   3.3790
     3.8898   4.4975   6.6106   7.0933

     occupation numbers 
     1.0000   1.0000   1.0000   1.0000   1.0000   1.0000   1.0000   1.0000
     1.0000   1.0000   1.0000   1.0000   1.0000   1.0000   1.0000   1.0000
     1.0000   1.0000   1.0000   1.0000   1.0000   1.0000   1.0000   1.0000
     1.0000   1.0000   0.0000   0.0000   0.0000   0.0000   0.0000   0.0000
     0.0000   0.0000   0.0000   0.0000

          k =-0.1470-0.0121 0.0000 ( 13309 PWs)   bands (ev):

   -61.2107 -60.5098 -35.4769 -35.3200 -35.3091 -34.8051 -34.7282 -34.6332
   -12.7404 -12.6113 -12.4726 -12.3919  -5.5159  -5.2105  -5.0467  -4.7193
    -4.0851  -3.7381  -3.5367  -3.2605  -2.9198  -2.5204  -1.9392  -1.5440
    -0.9489  -0.3612   1.6478   2.1370   2.3340   2.7044   2.8942   2.9811
     4.0304   4.6763   7.1761   7.5065

     occupation numbers 
     1.0000   1.0000   1.0000   1.0000   1.0000   1.0000   1.0000   1.0000
     1.0000   1.0000   1.0000   1.0000   1.0000   1.0000   1.0000   1.0000
     1.0000   1.0000   1.0000   1.0000   1.0000   1.0000   1.0000   1.0000
     1.0000   1.0000   0.0000   0.0000   0.0000   0.0000   0.0000   0.0000
     0.0000   0.0000   0.0000   0.0000

          k =-0.1470 0.0121 0.0000 ( 13309 PWs)   bands (ev):

   -61.2107 -60.5098 -35.4769 -35.3200 -35.3091 -34.8051 -34.7282 -34.6332
   -12.7404 -12.6113 -12.4726 -12.3919  -5.5159  -5.2105  -5.0467  -4.7193
    -4.0851  -3.7381  -3.5367  -3.2605  -2.9198  -2.5204  -1.9392  -1.5440
    -0.9489  -0.3612   1.6478   2.1370   2.3340   2.7044   2.8942   2.9811
     4.0304   4.6763   7.1761   7.5065

     occupation numbers 
     1.0000   1.0000   1.0000   1.0000   1.0000   1.0000   1.0000   1.0000
     1.0000   1.0000   1.0000   1.0000   1.0000   1.0000   1.0000   1.0000
     1.0000   1.0000   1.0000   1.0000   1.0000   1.0000   1.0000   1.0000
     1.0000   1.0000   0.0000   0.0000   0.0000   0.0000   0.0000   0.0000
     0.0000   0.0000   0.0000   0.0000

          k =-0.1470 0.0364 0.0000 ( 13357 PWs)   bands (ev):

   -61.2104 -60.5094 -35.5019 -35.3192 -35.2874 -34.8307 -34.7275 -34.6110
   -12.7086 -12.5775 -12.4618 -12.3871  -5.7277  -5.5006  -5.0777  -4.8773
    -4.2231  -3.8058  -3.5450  -3.0802  -2.3795  -2.1008  -1.8592  -1.7026
    -0.9253  -0.3029   1.7628   2.1805   2.3490   2.8024   2.9971   3.3790
     3.8898   4.4975   6.6106   7.0933

     occupation numbers 
     1.0000   1.0000   1.0000   1.0000   1.0000   1.0000   1.0000   1.0000
     1.0000   1.0000   1.0000   1.0000   1.0000   1.0000   1.0000   1.0000
     1.0000   1.0000   1.0000   1.0000   1.0000   1.0000   1.0000   1.0000
     1.0000   1.0000   0.0000   0.0000   0.0000   0.0000   0.0000   0.0000
     0.0000   0.0000   0.0000   0.0000

          k =-0.1470 0.0606 0.0000 ( 13363 PWs)   bands (ev):

   -61.2097 -60.5088 -35.5296 -35.3179 -35.2661 -34.8591 -34.7260 -34.5892
   -12.6547 -12.5208 -12.4400 -12.3749  -5.9796  -5.8274  -5.1432  -5.0175
    -4.3416  -3.9280  -3.4514  -2.8160  -2.2825  -1.9016  -1.7223  -1.1493
    -0.9317  -0.2600   1.8708   2.2474   2.4068   2.7028   3.3296   3.7057
     3.9502   4.3665   6.1126   6.5428

     occupation numbers 
     1.0000   1.0000   1.0000   1.0000   1.0000   1.0000   1.0000   1.0000
     1.0000   1.0000   1.0000   1.0000   1.0000   1.0000   1.0000   1.0000
     1.0000   1.0000   1.0000   1.0000   1.0000   1.0000   1.0000   1.0000
     1.0000   1.0000   0.0000   0.0000   0.0000   0.0000   0.0000   0.0000
     0.0000   0.0000   0.0000   0.0000

          k =-0.1470 0.0848 0.0000 ( 13390 PWs)   bands (ev):

   -61.2089 -60.5080 -35.5458 -35.3162 -35.2589 -34.8757 -34.7242 -34.5817
   -12.5943 -12.4615 -12.4055 -12.3530  -6.1222  -6.0153  -5.2172  -5.0978
    -4.3997  -3.9843  -3.4388  -2.6959  -2.3933  -1.9741  -1.3092  -1.0556
    -0.6998  -0.2824   1.8968   2.3450   2.4378   2.6845   3.3958   3.8261
     3.9877   4.5649   5.8274   6.1772

     occupation numbers 
     1.0000   1.0000   1.0000   1.0000   1.0000   1.0000   1.0000   1.0000
     1.0000   1.0000   1.0000   1.0000   1.0000   1.0000   1.0000   1.0000
     1.0000   1.0000   1.0000   1.0000   1.0000   1.0000   1.0000   1.0000
     1.0000   1.0000   0.0000   0.0000   0.0000   0.0000   0.0000   0.0000
     0.0000   0.0000   0.0000   0.0000

          k =-0.1260-0.2424 0.0000 ( 13368 PWs)   bands (ev):

   -61.2073 -60.5063 -35.5266 -35.3130 -35.2979 -34.8560 -34.7208 -34.6217
   -12.5082 -12.3841 -12.3266 -12.2895  -5.8772  -5.7651  -5.3195  -5.1728
    -4.3262  -3.8730  -3.5172  -3.0459  -2.3650  -2.2806  -1.9364  -1.8176
    -0.7420  -0.1486   1.8559   2.3304   2.5337   2.9440   3.1949   3.5473
     3.8027   4.4577   6.0604   6.4803

     occupation numbers 
     1.0000   1.0000   1.0000   1.0000   1.0000   1.0000   1.0000   1.0000
     1.0000   1.0000   1.0000   1.0000   1.0000   1.0000   1.0000   1.0000
     1.0000   1.0000   1.0000   1.0000   1.0000   1.0000   1.0000   1.0000
     1.0000   1.0000   0.0000   0.0000   0.0000   0.0000   0.0000   0.0000
     0.0000   0.0000   0.0000   0.0000

          k =-0.1260-0.2182 0.0000 ( 13378 PWs)   bands (ev):

   -61.2054 -60.5044 -35.5065 -35.3409 -35.3092 -34.8353 -34.7167 -34.6658
   -12.3989 -12.3068 -12.2159 -12.2057  -5.6165  -5.5336  -5.4608  -5.2785
    -4.2875  -3.8117  -3.4801  -3.2167  -3.0576  -2.6426  -2.3515  -2.0404
    -0.5941  -0.0530   1.6963   2.2418   2.7551   2.8319   3.0336   3.3020
     4.0458   4.8018   6.2418   6.6652

     occupation numbers 
     1.0000   1.0000   1.0000   1.0000   1.0000   1.0000   1.0000   1.0000
     1.0000   1.0000   1.0000   1.0000   1.0000   1.0000   1.0000   1.0000
     1.0000   1.0000   1.0000   1.0000   1.0000   1.0000   1.0000   1.0000
     1.0000   1.0000   0.0000   0.0000   0.0000   0.0000   0.0000   0.0000
     0.0000   0.0000   0.0000   0.0000

          k =-0.1260-0.1939 0.0000 ( 13352 PWs)   bands (ev):

   -61.2044 -60.5034 -35.4789 -35.3812 -35.3072 -34.8069 -34.7145 -34.7072
   -12.3417 -12.2663 -12.1682 -12.1417  -5.6481  -5.3590  -5.2476  -5.1250
    -4.2295  -3.8727  -3.7422  -3.4165  -3.2472  -3.1597  -2.4363  -2.1170
    -0.4891   0.0248   1.5226   2.1037   2.6330   2.7250   2.9273   3.4897
     4.2545   5.0437   6.5952   6.9766

     occupation numbers 
     1.0000   1.0000   1.0000   1.0000   1.0000   1.0000   1.0000   1.0000
     1.0000   1.0000   1.0000   1.0000   1.0000   1.0000   1.0000   1.0000
     1.0000   1.0000   1.0000   1.0000   1.0000   1.0000   1.0000   1.0000
     1.0000   1.0000   0.0000   0.0000   0.0000   0.0000   0.0000   0.0000
     0.0000   0.0000   0.0000   0.0000

          k =-0.1260-0.1697 0.0000 ( 13352 PWs)   bands (ev):

   -61.2044 -60.5034 -35.4789 -35.3812 -35.3072 -34.8069 -34.7145 -34.7072
   -12.3417 -12.2663 -12.1682 -12.1417  -5.6481  -5.3590  -5.2476  -5.1250
    -4.2295  -3.8727  -3.7422  -3.4165  -3.2472  -3.1597  -2.4363  -2.1170
    -0.4891   0.0248   1.5226   2.1037   2.6330   2.7250   2.9273   3.4897
     4.2545   5.0437   6.5952   6.9766

     occupation numbers 
     1.0000   1.0000   1.0000   1.0000   1.0000   1.0000   1.0000   1.0000
     1.0000   1.0000   1.0000   1.0000   1.0000   1.0000   1.0000   1.0000
     1.0000   1.0000   1.0000   1.0000   1.0000   1.0000   1.0000   1.0000
     1.0000   1.0000   0.0000   0.0000   0.0000   0.0000   0.0000   0.0000
     0.0000   0.0000   0.0000   0.0000

[...]

   -61.2122 -60.5113 -35.5148 -35.3230 -35.2516 -34.8439 -34.7315 -34.5743
   -12.8136 -12.6900 -12.5317 -12.4489  -5.9095  -5.6866  -4.9896  -4.8351
    -4.3134  -3.9278  -3.3341  -2.5805  -2.3186  -1.8858  -1.4227  -1.2280
    -0.8941  -0.4019   1.8496   2.1122   2.4112   2.4805   3.2576   3.7686
     3.8591   4.5294   6.3823   6.8009

     occupation numbers 
     1.0000   1.0000   1.0000   1.0000   1.0000   1.0000   1.0000   1.0000
     1.0000   1.0000   1.0000   1.0000   1.0000   1.0000   1.0000   1.0000
     1.0000   1.0000   1.0000   1.0000   1.0000   1.0000   1.0000   1.0000
     1.0000   1.0000   0.0000   0.0000   0.0000   0.0000   0.0000   0.0000
     0.0000   0.0000   0.0000   0.0000

          k = 0.1260 0.0970 0.0000 ( 13363 PWs)   bands (ev):

   -61.2097 -60.5088 -35.5296 -35.3179 -35.2661 -34.8591 -34.7260 -34.5892
   -12.6547 -12.5208 -12.4400 -12.3749  -5.9796  -5.8274  -5.1432  -5.0175
    -4.3416  -3.9280  -3.4514  -2.8160  -2.2825  -1.9016  -1.7223  -1.1493
    -0.9317  -0.2600   1.8708   2.2474   2.4068   2.7028   3.3296   3.7057
     3.9502   4.3665   6.1126   6.5428

     occupation numbers 
     1.0000   1.0000   1.0000   1.0000   1.0000   1.0000   1.0000   1.0000
     1.0000   1.0000   1.0000   1.0000   1.0000   1.0000   1.0000   1.0000
     1.0000   1.0000   1.0000   1.0000   1.0000   1.0000   1.0000   1.0000
     1.0000   1.0000   0.0000   0.0000   0.0000   0.0000   0.0000   0.0000
     0.0000   0.0000   0.0000   0.0000

          k = 0.1260 0.1212 0.0000 ( 13368 PWs)   bands (ev):

   -61.2073 -60.5063 -35.5266 -35.3130 -35.2979 -34.8560 -34.7208 -34.6217
   -12.5082 -12.3841 -12.3266 -12.2895  -5.8772  -5.7651  -5.3195  -5.1728
    -4.3262  -3.8730  -3.5172  -3.0459  -2.3650  -2.2806  -1.9364  -1.8176
    -0.7420  -0.1486   1.8559   2.3304   2.5337   2.9440   3.1949   3.5473
     3.8027   4.4577   6.0604   6.4803

     occupation numbers 
     1.0000   1.0000   1.0000   1.0000   1.0000   1.0000   1.0000   1.0000
     1.0000   1.0000   1.0000   1.0000   1.0000   1.0000   1.0000   1.0000
     1.0000   1.0000   1.0000   1.0000   1.0000   1.0000   1.0000   1.0000
     1.0000   1.0000   0.0000   0.0000   0.0000   0.0000   0.0000   0.0000
     0.0000   0.0000   0.0000   0.0000

          k = 0.1260 0.1454 0.0000 ( 13378 PWs)   bands (ev):

   -61.2054 -60.5044 -35.5065 -35.3409 -35.3092 -34.8353 -34.7167 -34.6658
   -12.3989 -12.3068 -12.2159 -12.2057  -5.6165  -5.5336  -5.4608  -5.2785
    -4.2875  -3.8117  -3.4801  -3.2167  -3.0576  -2.6426  -2.3515  -2.0404
    -0.5941  -0.0530   1.6963   2.2418   2.7551   2.8319   3.0336   3.3020
     4.0458   4.8018   6.2418   6.6652

     occupation numbers 
     1.0000   1.0000   1.0000   1.0000   1.0000   1.0000   1.0000   1.0000
     1.0000   1.0000   1.0000   1.0000   1.0000   1.0000   1.0000   1.0000
     1.0000   1.0000   1.0000   1.0000   1.0000   1.0000   1.0000   1.0000
     1.0000   1.0000   0.0000   0.0000   0.0000   0.0000   0.0000   0.0000
     0.0000   0.0000   0.0000   0.0000

          k = 0.1260 0.1697 0.0000 ( 13352 PWs)   bands (ev):

   -61.2044 -60.5034 -35.4789 -35.3812 -35.3072 -34.8069 -34.7145 -34.7072
   -12.3417 -12.2663 -12.1682 -12.1417  -5.6481  -5.3590  -5.2476  -5.1250
    -4.2295  -3.8727  -3.7422  -3.4165  -3.2472  -3.1597  -2.4363  -2.1170
    -0.4891   0.0248   1.5226   2.1037   2.6330   2.7250   2.9273   3.4897
     4.2545   5.0437   6.5952   6.9766

     occupation numbers 
     1.0000   1.0000   1.0000   1.0000   1.0000   1.0000   1.0000   1.0000
     1.0000   1.0000   1.0000   1.0000   1.0000   1.0000   1.0000   1.0000
     1.0000   1.0000   1.0000   1.0000   1.0000   1.0000   1.0000   1.0000
     1.0000   1.0000   0.0000   0.0000   0.0000   0.0000   0.0000   0.0000
     0.0000   0.0000   0.0000   0.0000

          k = 0.1260 0.1939 0.0000 ( 13352 PWs)   bands (ev):

   -61.2044 -60.5034 -35.4789 -35.3812 -35.3072 -34.8069 -34.7145 -34.7072
   -12.3417 -12.2663 -12.1682 -12.1417  -5.6481  -5.3590  -5.2476  -5.1250
    -4.2295  -3.8727  -3.7422  -3.4165  -3.2472  -3.1597  -2.4363  -2.1170
    -0.4891   0.0248   1.5226   2.1037   2.6330   2.7250   2.9273   3.4897
     4.2545   5.0437   6.5952   6.9766

     occupation numbers 
     1.0000   1.0000   1.0000   1.0000   1.0000   1.0000   1.0000   1.0000
     1.0000   1.0000   1.0000   1.0000   1.0000   1.0000   1.0000   1.0000
     1.0000   1.0000   1.0000   1.0000   1.0000   1.0000   1.0000   1.0000
     1.0000   1.0000   0.0000   0.0000   0.0000   0.0000   0.0000   0.0000
     0.0000   0.0000   0.0000   0.0000

          k = 0.1260 0.2182 0.0000 ( 13378 PWs)   bands (ev):

   -61.2054 -60.5044 -35.5065 -35.3409 -35.3092 -34.8353 -34.7167 -34.6658
   -12.3989 -12.3068 -12.2159 -12.2057  -5.6165  -5.5336  -5.4608  -5.2785
    -4.2875  -3.8117  -3.4801  -3.2167  -3.0576  -2.6426  -2.3515  -2.0404
    -0.5941  -0.0530   1.6963   2.2418   2.7551   2.8319   3.0336   3.3020
     4.0458   4.8018   6.2418   6.6652

     occupation numbers 
     1.0000   1.0000   1.0000   1.0000   1.0000   1.0000   1.0000   1.0000
     1.0000   1.0000   1.0000   1.0000   1.0000   1.0000   1.0000   1.0000
     1.0000   1.0000   1.0000   1.0000   1.0000   1.0000   1.0000   1.0000
     1.0000   1.0000   0.0000   0.0000   0.0000   0.0000   0.0000   0.0000
     0.0000   0.0000   0.0000   0.0000

          k = 0.1260 0.2424 0.0000 ( 13368 PWs)   bands (ev):

   -61.2073 -60.5063 -35.5266 -35.3130 -35.2979 -34.8560 -34.7208 -34.6217
   -12.5082 -12.3841 -12.3266 -12.2895  -5.8772  -5.7651  -5.3195  -5.1728
    -4.3262  -3.8730  -3.5172  -3.0459  -2.3650  -2.2806  -1.9364  -1.8176
    -0.7420  -0.1486   1.8559   2.3304   2.5337   2.9440   3.1949   3.5473
     3.8027   4.4577   6.0604   6.4803

     occupation numbers 
     1.0000   1.0000   1.0000   1.0000   1.0000   1.0000   1.0000   1.0000
     1.0000   1.0000   1.0000   1.0000   1.0000   1.0000   1.0000   1.0000
     1.0000   1.0000   1.0000   1.0000   1.0000   1.0000   1.0000   1.0000
     1.0000   1.0000   0.0000   0.0000   0.0000   0.0000   0.0000   0.0000
     0.0000   0.0000   0.0000   0.0000

          k = 0.1470-0.0848 0.0000 ( 13390 PWs)   bands (ev):

   -61.2089 -60.5080 -35.5458 -35.3162 -35.2589 -34.8757 -34.7242 -34.5817
   -12.5943 -12.4615 -12.4055 -12.3530  -6.1222  -6.0153  -5.2172  -5.0978
    -4.3997  -3.9843  -3.4388  -2.6959  -2.3933  -1.9741  -1.3092  -1.0556
    -0.6998  -0.2824   1.8968   2.3450   2.4378   2.6845   3.3958   3.8261
     3.9877   4.5649   5.8274   6.1772

     occupation numbers 
     1.0000   1.0000   1.0000   1.0000   1.0000   1.0000   1.0000   1.0000
     1.0000   1.0000   1.0000   1.0000   1.0000   1.0000   1.0000   1.0000
     1.0000   1.0000   1.0000   1.0000   1.0000   1.0000   1.0000   1.0000
     1.0000   1.0000   0.0000   0.0000   0.0000   0.0000   0.0000   0.0000
     0.0000   0.0000   0.0000   0.0000

          k = 0.1470-0.0606 0.0000 ( 13363 PWs)   bands (ev):

   -61.2097 -60.5088 -35.5296 -35.3179 -35.2661 -34.8591 -34.7260 -34.5892
   -12.6547 -12.5208 -12.4400 -12.3749  -5.9796  -5.8274  -5.1432  -5.0175
    -4.3416  -3.9280  -3.4514  -2.8160  -2.2825  -1.9016  -1.7223  -1.1493
    -0.9317  -0.2600   1.8708   2.2474   2.4068   2.7028   3.3296   3.7057
     3.9502   4.3665   6.1126   6.5428

     occupation numbers 
     1.0000   1.0000   1.0000   1.0000   1.0000   1.0000   1.0000   1.0000
     1.0000   1.0000   1.0000   1.0000   1.0000   1.0000   1.0000   1.0000
     1.0000   1.0000   1.0000   1.0000   1.0000   1.0000   1.0000   1.0000
     1.0000   1.0000   0.0000   0.0000   0.0000   0.0000   0.0000   0.0000
     0.0000   0.0000   0.0000   0.0000

          k = 0.1470-0.0364 0.0000 ( 13357 PWs)   bands (ev):

   -61.2104 -60.5094 -35.5019 -35.3192 -35.2874 -34.8307 -34.7275 -34.6110
   -12.7086 -12.5775 -12.4618 -12.3871  -5.7277  -5.5006  -5.0777  -4.8773
    -4.2231  -3.8058  -3.5450  -3.0802  -2.3795  -2.1008  -1.8592  -1.7026
    -0.9253  -0.3029   1.7628   2.1805   2.3490   2.8024   2.9971   3.3790
     3.8898   4.4975   6.6106   7.0933

     occupation numbers 
     1.0000   1.0000   1.0000   1.0000   1.0000   1.0000   1.0000   1.0000
     1.0000   1.0000   1.0000   1.0000   1.0000   1.0000   1.0000   1.0000
     1.0000   1.0000   1.0000   1.0000   1.0000   1.0000   1.0000   1.0000
     1.0000   1.0000   0.0000   0.0000   0.0000   0.0000   0.0000   0.0000
     0.0000   0.0000   0.0000   0.0000

          k = 0.1470-0.0121 0.0000 ( 13309 PWs)   bands (ev):

   -61.2107 -60.5098 -35.4769 -35.3200 -35.3091 -34.8051 -34.7282 -34.6332
   -12.7404 -12.6113 -12.4726 -12.3919  -5.5159  -5.2105  -5.0467  -4.7193
    -4.0851  -3.7381  -3.5367  -3.2605  -2.9198  -2.5204  -1.9392  -1.5440
    -0.9489  -0.3612   1.6478   2.1370   2.3340   2.7044   2.8942   2.9811
     4.0304   4.6763   7.1761   7.5065

     occupation numbers 
     1.0000   1.0000   1.0000   1.0000   1.0000   1.0000   1.0000   1.0000
     1.0000   1.0000   1.0000   1.0000   1.0000   1.0000   1.0000   1.0000
     1.0000   1.0000   1.0000   1.0000   1.0000   1.0000   1.0000   1.0000
     1.0000   1.0000   0.0000   0.0000   0.0000   0.0000   0.0000   0.0000
     0.0000   0.0000   0.0000   0.0000

          k = 0.1470 0.0121 0.0000 ( 13309 PWs)   bands (ev):

   -61.2107 -60.5098 -35.4769 -35.3200 -35.3091 -34.8051 -34.7282 -34.6332
   -12.7404 -12.6113 -12.4726 -12.3919  -5.5159  -5.2105  -5.0467  -4.7193
    -4.0851  -3.7381  -3.5367  -3.2605  -2.9198  -2.5204  -1.9392  -1.5440
    -0.9489  -0.3612   1.6478   2.1370   2.3340   2.7044   2.8942   2.9811
     4.0304   4.6763   7.1761   7.5065

     occupation numbers 
     1.0000   1.0000   1.0000   1.0000   1.0000   1.0000   1.0000   1.0000
     1.0000   1.0000   1.0000   1.0000   1.0000   1.0000   1.0000   1.0000
     1.0000   1.0000   1.0000   1.0000   1.0000   1.0000   1.0000   1.0000
     1.0000   1.0000   0.0000   0.0000   0.0000   0.0000   0.0000   0.0000
     0.0000   0.0000   0.0000   0.0000

          k = 0.1470 0.0364 0.0000 ( 13357 PWs)   bands (ev):

   -61.2104 -60.5094 -35.5019 -35.3192 -35.2874 -34.8307 -34.7275 -34.6110
   -12.7086 -12.5775 -12.4618 -12.3871  -5.7277  -5.5006  -5.0777  -4.8773
    -4.2231  -3.8058  -3.5450  -3.0802  -2.3795  -2.1008  -1.8592  -1.7026
    -0.9253  -0.3029   1.7628   2.1805   2.3490   2.8024   2.9971   3.3790
     3.8898   4.4975   6.6106   7.0933

     occupation numbers 
     1.0000   1.0000   1.0000   1.0000   1.0000   1.0000   1.0000   1.0000
     1.0000   1.0000   1.0000   1.0000   1.0000   1.0000   1.0000   1.0000
     1.0000   1.0000   1.0000   1.0000   1.0000   1.0000   1.0000   1.0000
     1.0000   1.0000   0.0000   0.0000   0.0000   0.0000   0.0000   0.0000
     0.0000   0.0000   0.0000   0.0000

          k = 0.1470 0.0606 0.0000 ( 13363 PWs)   bands (ev):

   -61.2097 -60.5088 -35.5296 -35.3179 -35.2661 -34.8591 -34.7260 -34.5892
   -12.6547 -12.5208 -12.4400 -12.3749  -5.9796  -5.8274  -5.1432  -5.0175
    -4.3416  -3.9280  -3.4514  -2.8160  -2.2825  -1.9016  -1.7223  -1.1493
    -0.9317  -0.2600   1.8708   2.2474   2.4068   2.7028   3.3296   3.7057
     3.9502   4.3665   6.1126   6.5428

     occupation numbers 
     1.0000   1.0000   1.0000   1.0000   1.0000   1.0000   1.0000   1.0000
     1.0000   1.0000   1.0000   1.0000   1.0000   1.0000   1.0000   1.0000
     1.0000   1.0000   1.0000   1.0000   1.0000   1.0000   1.0000   1.0000
     1.0000   1.0000   0.0000   0.0000   0.0000   0.0000   0.0000   0.0000
     0.0000   0.0000   0.0000   0.0000

          k = 0.1470 0.0848 0.0000 ( 13390 PWs)   bands (ev):

   -61.2089 -60.5080 -35.5458 -35.3162 -35.2589 -34.8757 -34.7242 -34.5817
   -12.5943 -12.4615 -12.4055 -12.3530  -6.1222  -6.0153  -5.2172  -5.0978
    -4.3997  -3.9843  -3.4388  -2.6959  -2.3933  -1.9741  -1.3092  -1.0556
    -0.6998  -0.2824   1.8968   2.3450   2.4378   2.6845   3.3958   3.8261
     3.9877   4.5649   5.8274   6.1772

     occupation numbers 
     1.0000   1.0000   1.0000   1.0000   1.0000   1.0000   1.0000   1.0000
     1.0000   1.0000   1.0000   1.0000   1.0000   1.0000   1.0000   1.0000
     1.0000   1.0000   1.0000   1.0000   1.0000   1.0000   1.0000   1.0000
     1.0000   1.0000   0.0000   0.0000   0.0000   0.0000   0.0000   0.0000
     0.0000   0.0000   0.0000   0.0000

          k = 0.1470 0.1091 0.0000 ( 13368 PWs)   bands (ev):

   -61.2081 -60.5071 -35.5447 -35.3145 -35.2702 -34.8745 -34.7224 -34.5933
   -12.5426 -12.4166 -12.3621 -12.3224  -6.0875  -5.9934  -5.2647  -5.1588
    -4.3926  -3.9629  -3.4786  -2.8337  -2.3493  -1.9739  -1.6776  -1.0706
    -0.8316  -0.1838   1.9091   2.3887   2.4590   2.7950   3.4670   3.6700
     4.0935   4.2636   5.8173   6.1613

     occupation numbers 
     1.0000   1.0000   1.0000   1.0000   1.0000   1.0000   1.0000   1.0000
     1.0000   1.0000   1.0000   1.0000   1.0000   1.0000   1.0000   1.0000
     1.0000   1.0000   1.0000   1.0000   1.0000   1.0000   1.0000   1.0000
     1.0000   1.0000   0.0000   0.0000   0.0000   0.0000   0.0000   0.0000
     0.0000   0.0000   0.0000   0.0000

          k = 0.1470 0.1333 0.0000 ( 13368 PWs)   bands (ev):

   -61.2073 -60.5063 -35.5266 -35.3130 -35.2979 -34.8560 -34.7208 -34.6217
   -12.5082 -12.3841 -12.3266 -12.2895  -5.8772  -5.7651  -5.3195  -5.1728
    -4.3262  -3.8730  -3.5172  -3.0459  -2.3650  -2.2806  -1.9364  -1.8176
    -0.7420  -0.1486   1.8559   2.3304   2.5337   2.9440   3.1949   3.5473
     3.8027   4.4577   6.0604   6.4803

     occupation numbers 
     1.0000   1.0000   1.0000   1.0000   1.0000   1.0000   1.0000   1.0000
     1.0000   1.0000   1.0000   1.0000   1.0000   1.0000   1.0000   1.0000
     1.0000   1.0000   1.0000   1.0000   1.0000   1.0000   1.0000   1.0000
     1.0000   1.0000   0.0000   0.0000   0.0000   0.0000   0.0000   0.0000
     0.0000   0.0000   0.0000   0.0000

          k = 0.1470 0.1576 0.0000 ( 13361 PWs)   bands (ev):

   -61.2068 -60.5058 -35.4990 -35.3323 -35.3120 -34.8277 -34.7197 -34.6570
   -12.4907 -12.3631 -12.3064 -12.2640  -5.5894  -5.4387  -5.3642  -5.1293
    -4.1988  -3.7290  -3.5531  -3.2346  -3.0487  -2.6404  -2.2269  -1.8832
    -0.7208  -0.1676   1.7429   2.2162   2.6183   2.7969   3.0156   3.1570
     4.0478   4.7706   6.5093   6.9737

     occupation numbers 
     1.0000   1.0000   1.0000   1.0000   1.0000   1.0000   1.0000   1.0000
     1.0000   1.0000   1.0000   1.0000   1.0000   1.0000   1.0000   1.0000
     1.0000   1.0000   1.0000   1.0000   1.0000   1.0000   1.0000   1.0000
     1.0000   1.0000   0.0000   0.0000   0.0000   0.0000   0.0000   0.0000
     0.0000   0.0000   0.0000   0.0000

          k = 0.1470 0.1818 0.0000 ( 13355 PWs)   bands (ev):

   -61.2066 -60.5057 -35.4828 -35.3510 -35.3117 -34.8111 -34.7193 -34.6762
   -12.4857 -12.3559 -12.3001 -12.2544  -5.4575  -5.4076  -5.2081  -5.0976
    -4.0562  -3.6300  -3.5616  -3.4409  -3.2290  -3.1401  -2.2078  -1.8522
    -0.7200  -0.1807   1.6862   2.1584   2.6475   2.6842   2.8204   3.1963
     4.1608   4.9014   6.9778   7.1025

     occupation numbers 
     1.0000   1.0000   1.0000   1.0000   1.0000   1.0000   1.0000   1.0000
     1.0000   1.0000   1.0000   1.0000   1.0000   1.0000   1.0000   1.0000
     1.0000   1.0000   1.0000   1.0000   1.0000   1.0000   1.0000   1.0000
     1.0000   1.0000   0.0000   0.0000   0.0000   0.0000   0.0000   0.0000
     0.0000   0.0000   0.0000   0.0000

          k = 0.1470 0.2060 0.0000 ( 13361 PWs)   bands (ev):

   -61.2068 -60.5058 -35.4990 -35.3323 -35.3120 -34.8277 -34.7197 -34.6570
   -12.4907 -12.3631 -12.3064 -12.2640  -5.5894  -5.4387  -5.3642  -5.1293
    -4.1988  -3.7290  -3.5531  -3.2346  -3.0487  -2.6404  -2.2269  -1.8832
    -0.7208  -0.1676   1.7429   2.2162   2.6183   2.7969   3.0156   3.1570
     4.0478   4.7706   6.5093   6.9737

     occupation numbers 
     1.0000   1.0000   1.0000   1.0000   1.0000   1.0000   1.0000   1.0000
     1.0000   1.0000   1.0000   1.0000   1.0000   1.0000   1.0000   1.0000
     1.0000   1.0000   1.0000   1.0000   1.0000   1.0000   1.0000   1.0000
     1.0000   1.0000   0.0000   0.0000   0.0000   0.0000   0.0000   0.0000
     0.0000   0.0000   0.0000   0.0000

          k = 0.1470 0.2303 0.0000 ( 13368 PWs)   bands (ev):

   -61.2073 -60.5063 -35.5266 -35.3130 -35.2979 -34.8560 -34.7208 -34.6217
   -12.5082 -12.3841 -12.3266 -12.2895  -5.8772  -5.7651  -5.3195  -5.1728
    -4.3262  -3.8730  -3.5172  -3.0459  -2.3650  -2.2806  -1.9364  -1.8176
    -0.7420  -0.1486   1.8559   2.3304   2.5337   2.9440   3.1949   3.5473
     3.8027   4.4577   6.0604   6.4803

     occupation numbers 
     1.0000   1.0000   1.0000   1.0000   1.0000   1.0000   1.0000   1.0000
     1.0000   1.0000   1.0000   1.0000   1.0000   1.0000   1.0000   1.0000
     1.0000   1.0000   1.0000   1.0000   1.0000   1.0000   1.0000   1.0000
     1.0000   1.0000   0.0000   0.0000   0.0000   0.0000   0.0000   0.0000
     0.0000   0.0000   0.0000   0.0000

          k = 0.1470 0.2545 0.0000 ( 13368 PWs)   bands (ev):

   -61.2081 -60.5071 -35.5447 -35.3145 -35.2702 -34.8745 -34.7224 -34.5933
   -12.5426 -12.4166 -12.3621 -12.3224  -6.0875  -5.9934  -5.2647  -5.1588
    -4.3926  -3.9629  -3.4786  -2.8337  -2.3493  -1.9739  -1.6776  -1.0706
    -0.8316  -0.1838   1.9091   2.3887   2.4590   2.7950   3.4670   3.6700
     4.0935   4.2636   5.8173   6.1613

     occupation numbers 
     1.0000   1.0000   1.0000   1.0000   1.0000   1.0000   1.0000   1.0000
     1.0000   1.0000   1.0000   1.0000   1.0000   1.0000   1.0000   1.0000
     1.0000   1.0000   1.0000   1.0000   1.0000   1.0000   1.0000   1.0000
     1.0000   1.0000   0.0000   0.0000   0.0000   0.0000   0.0000   0.0000
     0.0000   0.0000   0.0000   0.0000

     highest occupied, lowest unoccupied level (ev):     0.1341    1.3773

     Writing all to output data dir ./calc.save/

     init_run     :      0.22s CPU      0.24s WALL (       1 calls)
     electrons    :    585.92s CPU    325.17s WALL (       1 calls)

     Called by init_run:
     wfcinit      :      0.00s CPU      0.00s WALL (       1 calls)
     wfcinit:wfcr :      6.69s CPU      4.35s WALL (     225 calls)
     potinit      :      0.00s CPU      0.01s WALL (       1 calls)
     hinit0       :      0.19s CPU      0.19s WALL (       1 calls)

     Called by electrons:
     c_bands      :    585.90s CPU    325.15s WALL (       1 calls)
     v_of_rho     :      0.00s CPU      0.01s WALL (       1 calls)
     v_h          :      0.00s CPU      0.00s WALL (       1 calls)
     v_xc         :      0.00s CPU      0.01s WALL (       1 calls)

     Called by c_bands:
     init_us_2    :      0.09s CPU      0.05s WALL (     225 calls)
     init_us_2:cp :      0.09s CPU      0.05s WALL (     225 calls)
     cegterg      :    554.45s CPU    296.20s WALL (     729 calls)

     Called by sum_band:

     Called by *egterg:
     cdiaghg      :    151.80s CPU     67.38s WALL (   13141 calls)
     cegterg:over :    125.27s CPU     45.86s WALL (   12916 calls)
     cegterg:upda :     16.73s CPU      4.46s WALL (   12916 calls)
     cegterg:last :     14.60s CPU      6.81s WALL (    8684 calls)
     h_psi        :    160.23s CPU    134.32s WALL (   13870 calls)
     g_psi        :      1.95s CPU      1.90s WALL (   12916 calls)

     Called by h_psi:
     h_psi:calbec :     14.36s CPU     11.11s WALL (   13870 calls)
     vloc_psi     :    119.80s CPU    116.77s WALL (   13870 calls)
     add_vuspsi   :     25.60s CPU      6.05s WALL (   13870 calls)

     General routines
     calbec       :     14.28s CPU     11.06s WALL (   13870 calls)
     fft          :      0.03s CPU      0.03s WALL (      10 calls)
     fftw         :    114.51s CPU    111.72s WALL (  606954 calls)
     davcio       :      0.33s CPU      1.12s WALL (     450 calls)

     Parallel routines

     PWSCF        :   9m48.19s CPU   5m28.90s WALL


   This run was terminated on:  11:45:46  28Jun2023            

=------------------------------------------------------------------------------=
   JOB DONE.
=------------------------------------------------------------------------------=
