
     Program PWSCF v.7.1 starts on 29Jun2023 at 17:13: 0 

     This program is part of the open-source Quantum ESPRESSO suite
     for quantum simulation of materials; please cite
         "P. Giannozzi et al., J. Phys.:Condens. Matter 21 395502 (2009);
         "P. Giannozzi et al., J. Phys.:Condens. Matter 29 465901 (2017);
         "P. Giannozzi et al., J. Chem. Phys. 152 154105 (2020);
          URL http://www.quantum-espresso.org", 
     in publications or presentations arising from this work. More details at
     http://www.quantum-espresso.org/quote

     Parallel version (MPI), running on    42 processors

     MPI processes distributed on     1 nodes
     570725 MiB available memory on the printing compute node when the environment starts

     Waiting for input...
     Reading input from standard input

     Current dimensions of program PWSCF are:
     Max number of different atomic species (ntypx) = 10
     Max number of k-points (npk) =  40000
     Max angular momentum in pseudopotentials (lmaxx) =  4
     Message from routine cell_base_init:
     DEPRECATED: use true lattice parameter, not A to a.u. conversion factor

     IMPORTANT: XC functional enforced from input :
     Exchange-correlation= PBE
                           (   1   4   3   4   0   0   0)
     Any further DFT definition will be discarded
     Please, verify this is what you really want

     Message from routine setup:
     using ibrav=0 with symmetry is DISCOURAGED, use correct ibrav instead

     R & G space division:  proc/nbgrp/npool/nimage =      42
     Subspace diagonalization in iterative solution of the eigenvalue problem:
     a serial algorithm will be used


     Parallelization info
     --------------------
     sticks:   dense  smooth     PW     G-vecs:    dense   smooth      PW
     Min          13      13      3                 2833     2833     419
     Max          14      14      4                 2880     2880     486
     Sum         559     559    163               119551   119551   19637

     Using Slab Decomposition



     bravais-lattice index     =            0
     lattice parameter (alat)  =       1.8897  a.u.
     unit-cell volume          =    2500.3183 (a.u.)^3
     number of atoms/cell      =            6
     number of atomic types    =            4
     number of electrons       =        86.00
     number of Kohn-Sham states=           53
     kinetic-energy cutoff     =      50.0000  Ry
     charge density cutoff     =     199.9999  Ry
     scf convergence threshold =      7.3E-08
     mixing beta               =       0.7000
     number of iterations used =            8  plain     mixing
     Exchange-correlation= PBE
                           (   1   4   3   4   0   0   0)

     celldm(1)=   1.889726  celldm(2)=   0.000000  celldm(3)=   0.000000
     celldm(4)=   0.000000  celldm(5)=   0.000000  celldm(6)=   0.000000

     crystal axes: (cart. coord. in units of alat)
               a(1) = (   3.343090   0.000000   0.000000 )  
               a(2) = (  -1.671545   2.895201   0.000000 )  
               a(3) = (   0.000000   0.000000  38.280000 )  

     reciprocal axes: (cart. coord. in units 2 pi/alat)
               b(1) = (  0.299124  0.172700 -0.000000 )  
               b(2) = (  0.000000  0.345399  0.000000 )  
               b(3) = (  0.000000 -0.000000  0.026123 )  


     PseudoPot. # 1 for Mo read from file:
     /ccs/home/dpalmer3/qe-7.1/pseudo/Mo.UPF
     MD5 check sum: e75ed155aa411dd1617a1e98b4cfb1d3
     Pseudo is Norm-conserving, Zval = 14.0
     Generated using ONCVPSP code by D. R. Hamann
     Using radial grid of  602 points,  6 beta functions with: 
                l(1) =   0
                l(2) =   0
                l(3) =   1
                l(4) =   1
                l(5) =   2
                l(6) =   2

     PseudoPot. # 2 for Se read from file:
     /ccs/home/dpalmer3/qe-7.1/pseudo/Se.UPF
     MD5 check sum: e78e48a4f5d8ce1f8dc76ec1271f249c
     Pseudo is Norm-conserving, Zval =  6.0
     Generated using ONCVPSP code by D. R. Hamann
     Using radial grid of  602 points,  6 beta functions with: 
                l(1) =   0
                l(2) =   0
                l(3) =   1
                l(4) =   1
                l(5) =   2
                l(6) =   2

     PseudoPot. # 3 for W  read from file:
     /ccs/home/dpalmer3/qe-7.1/pseudo/W.UPF
     MD5 check sum: b6096f31a98cdd82a46cfdcd1f902baf
     Pseudo is Norm-conserving, Zval = 28.0
     Generated using ONCVPSP code by D. R. Hamann
     Using radial grid of  602 points,  8 beta functions with: 
                l(1) =   0
                l(2) =   0
                l(3) =   1
                l(4) =   1
                l(5) =   2
                l(6) =   2
                l(7) =   3
                l(8) =   3

     PseudoPot. # 4 for Te read from file:
     /ccs/home/dpalmer3/qe-7.1/pseudo/Te.UPF
     MD5 check sum: dd4de4dac1e38587f63aaf3700bb29d3
     Pseudo is Norm-conserving, Zval = 16.0
     Generated using ONCVPSP code by D. R. Hamann
     Using radial grid of  602 points,  6 beta functions with: 
                l(1) =   0
                l(2) =   0
                l(3) =   1
                l(4) =   1
                l(5) =   2
                l(6) =   2

     atomic species   valence    mass     pseudopotential
        Mo1           14.00    95.95000     Mo( 1.00)
        Se1            6.00    78.97100     Se( 1.00)
        W1            28.00   183.84000     W ( 1.00)
        Te1           16.00   127.60000     Te( 1.00)

      6 Sym. Ops. (no inversion) found



   Cartesian axes

     site n.     atom                  positions (alat units)
         1           Mo1 tau(   1) = (   0.0000000   0.0000000  11.6650000  )
         2           Se1 tau(   2) = (   1.6715450   0.9650670  13.3300000  )
         3           Se1 tau(   3) = (   1.6715450   0.9650670  10.0000000  )
         4           W1  tau(   4) = (   1.6715450   0.9650670  18.2800000  )
         5           Te1 tau(   5) = (  -0.0000000   1.9301339  20.0300000  )
         6           Te1 tau(   6) = (  -0.0000000   1.9301339  16.5300000  )

     number of k points=    27
                       cart. coord. in units 2pi/alat
        k(    1) = (   0.0000000   0.0000000   0.0000000), wk =   0.0088889
        k(    2) = (   0.0000000   0.0230266   0.0000000), wk =   0.0533333
        k(    3) = (   0.0000000   0.0460532   0.0000000), wk =   0.0533333
        k(    4) = (   0.0000000   0.0690798   0.0000000), wk =   0.0533333
        k(    5) = (   0.0000000   0.0921064   0.0000000), wk =   0.0533333
        k(    6) = (   0.0000000   0.1151331   0.0000000), wk =   0.0533333
        k(    7) = (   0.0000000   0.1381597   0.0000000), wk =   0.0533333
        k(    8) = (   0.0000000   0.1611863   0.0000000), wk =   0.0533333
        k(    9) = (   0.0199416   0.0345399   0.0000000), wk =   0.0533333
        k(   10) = (   0.0199416   0.0575665   0.0000000), wk =   0.1066667
        k(   11) = (   0.0199416   0.0805931   0.0000000), wk =   0.1066667
        k(   12) = (   0.0199416   0.1036198   0.0000000), wk =   0.1066667
        k(   13) = (   0.0199416   0.1266464   0.0000000), wk =   0.1066667
        k(   14) = (   0.0199416   0.1496730   0.0000000), wk =   0.1066667
        k(   15) = (   0.0199416   0.1726996   0.0000000), wk =   0.0533333
        k(   16) = (   0.0398833   0.0690798   0.0000000), wk =   0.0533333
        k(   17) = (   0.0398833   0.0921064   0.0000000), wk =   0.1066667
        k(   18) = (   0.0398833   0.1151331   0.0000000), wk =   0.1066667
        k(   19) = (   0.0398833   0.1381597   0.0000000), wk =   0.1066667
        k(   20) = (   0.0398833   0.1611863   0.0000000), wk =   0.1066667
        k(   21) = (   0.0598249   0.1036198   0.0000000), wk =   0.0533333
        k(   22) = (   0.0598249   0.1266464   0.0000000), wk =   0.1066667
        k(   23) = (   0.0598249   0.1496730   0.0000000), wk =   0.1066667
        k(   24) = (   0.0598249   0.1726996   0.0000000), wk =   0.0533333
        k(   25) = (   0.0797665   0.1381597   0.0000000), wk =   0.0533333
        k(   26) = (   0.0797665   0.1611863   0.0000000), wk =   0.1066667
        k(   27) = (   0.0997082   0.1726996   0.0000000), wk =   0.0177778

     Dense  grid:   119551 G-vectors     FFT dimensions: (  30,  30, 360)

     Estimated max dynamical RAM per process >      23.36 MB

     Estimated total dynamical RAM >     981.18 MB

     Atomic positions and unit cell read from directory:
     ./calc.save/


     The initial density is read from file :
     ./calc.save/charge-density

     Starting wfcs from file

     total cpu time spent up to now is        4.5 secs

     Self-consistent Calculation

     iteration #  1     ecut=    50.00 Ry     beta= 0.70
     Davidson diagonalization with overlap
     c_bands:  1 eigenvalues not converged
     c_bands:  1 eigenvalues not converged
     c_bands:  1 eigenvalues not converged
     c_bands:  1 eigenvalues not converged
     c_bands:  1 eigenvalues not converged
     c_bands:  1 eigenvalues not converged
     c_bands:  1 eigenvalues not converged
     c_bands:  2 eigenvalues not converged
     c_bands:  1 eigenvalues not converged
     c_bands:  1 eigenvalues not converged
     c_bands:  2 eigenvalues not converged
     c_bands:  1 eigenvalues not converged
     c_bands:  1 eigenvalues not converged
     ethr =  1.00E-05,  avg # of iterations = 18.3

     Threshold (ethr) on eigenvalues was too large:
     Diagonalizing with lowered threshold

     Davidson diagonalization with overlap
     ethr =  3.57E-09,  avg # of iterations =  4.4

     total cpu time spent up to now is       47.3 secs

     total energy              =   -1068.60014555 Ry
     estimated scf accuracy    <       0.00000166 Ry

     iteration #  2     ecut=    50.00 Ry     beta= 0.70
     Davidson diagonalization with overlap
     ethr =  1.92E-09,  avg # of iterations =  3.1

     total cpu time spent up to now is       54.4 secs

     total energy              =   -1068.60014160 Ry
     estimated scf accuracy    <       0.00006087 Ry

     iteration #  3     ecut=    50.00 Ry     beta= 0.70
     Davidson diagonalization with overlap
     ethr =  1.92E-09,  avg # of iterations =  3.1

     total cpu time spent up to now is       61.0 secs

     total energy              =   -1068.60014678 Ry
     estimated scf accuracy    <       0.00000080 Ry

     iteration #  4     ecut=    50.00 Ry     beta= 0.70
     Davidson diagonalization with overlap
     ethr =  9.29E-10,  avg # of iterations =  2.0

     total cpu time spent up to now is       65.6 secs

     End of self-consistent calculation

          k = 0.0000 0.0000 0.0000 ( 14857 PWs)   bands (ev):

   -71.7388 -59.2760 -36.1173 -36.0022 -36.0022 -34.8485 -34.8485 -34.8201
   -34.8201 -34.7716 -34.7716 -34.7702 -34.7502 -34.7264 -34.7264 -33.3997
   -33.2636 -33.2636 -25.9413 -25.9413 -25.9231 -25.9215 -25.9215 -25.9147
   -25.9071 -12.5530 -12.1210 -11.5495 -10.6116  -4.5523  -3.6565  -0.9077
    -0.5673  -0.5673  -0.0539  -0.0539   0.3148   0.3988   0.3988   1.0814
     1.1151   1.1151   1.9146   4.3334   4.3334   4.5726   4.5726   5.8518
     5.8518   6.1593   6.2851   6.2851   6.3814

          k = 0.0000 0.0230 0.0000 ( 14851 PWs)   bands (ev):

   -71.7384 -59.2752 -36.1203 -36.0094 -36.0046 -34.8468 -34.8458 -34.8212
   -34.8195 -34.7717 -34.7703 -34.7686 -34.7494 -34.7278 -34.7252 -33.3977
   -33.2734 -33.2658 -25.9413 -25.9412 -25.9228 -25.9217 -25.9216 -25.9146
   -25.9075 -12.4949 -12.0409 -11.5162 -10.5617  -4.4668  -3.5832  -0.9867
    -0.7237  -0.5093  -0.2439   0.0062   0.0183   0.3005   0.5522   0.9988
     1.0997   1.1241   1.8776   4.1690   4.3382   4.4142   4.4921   5.5526
     5.7523   5.9459   6.0964   6.3117   6.5138

          k = 0.0000 0.0461 0.0000 ( 14873 PWs)   bands (ev):

   -71.7374 -59.2728 -36.1286 -36.0297 -36.0115 -34.8422 -34.8396 -34.8242
   -34.8175 -34.7720 -34.7679 -34.7624 -34.7472 -34.7306 -34.7218 -33.3920
   -33.3009 -33.2722 -25.9415 -25.9408 -25.9223 -25.9220 -25.9217 -25.9142
   -25.9084 -12.3261 -11.8056 -11.4178 -10.4141  -4.2212  -3.3767  -1.2042
    -1.1351  -0.7490  -0.4514  -0.3429   0.0474   0.2280   0.5563   0.6992
     1.0674   1.0940   1.6806   3.8739   3.9657   4.2423   4.6556   4.8763
     5.0825   5.6480   6.1702   6.5382   6.7916

          k = 0.0000 0.0691 0.0000 ( 14900 PWs)   bands (ev):

   -71.7360 -59.2693 -36.1406 -36.0598 -36.0216 -34.8355 -34.8340 -34.8280
   -34.8141 -34.7723 -34.7666 -34.7512 -34.7441 -34.7314 -34.7173 -33.3836
   -33.3412 -33.2815 -25.9418 -25.9403 -25.9231 -25.9220 -25.9209 -25.9137
   -25.9097 -12.0633 -11.4431 -11.2485 -10.1766  -3.8576  -3.0914  -1.6861
    -1.5347  -1.4352  -1.0098  -0.2756  -0.0894   0.3162   0.3550   0.5485
     0.8605   0.9634   1.2761   3.5545   3.8545   3.9536   4.2565   4.8963
     4.9378   5.1569   6.4113   6.9050   7.1740

          k = 0.0000 0.0921 0.0000 ( 14916 PWs)   bands (ev):

   -71.7343 -59.2653 -36.1541 -36.0946 -36.0332 -34.8368 -34.8279 -34.8268
   -34.8096 -34.7726 -34.7684 -34.7432 -34.7329 -34.7279 -34.7126 -33.3871
   -33.3740 -33.2922 -25.9421 -25.9398 -25.9241 -25.9223 -25.9196 -25.9131
   -25.9111 -11.7359 -11.1356 -10.8673  -9.8660  -3.5008  -2.9215  -2.2215
    -2.1438  -1.9384  -1.6525  -0.5934  -0.0682   0.0462   0.2100   0.5624
     0.7027   0.8736   0.9338   3.3855   3.6890   3.7871   4.2833   4.6583
     5.1621   5.1783   6.5922   7.3576   7.6507

          k = 0.0000 0.1151 0.0000 ( 14884 PWs)   bands (ev):

   -71.7326 -59.2615 -36.1666 -36.1280 -36.0442 -34.8428 -34.8250 -34.8208
   -34.8048 -34.7727 -34.7721 -34.7388 -34.7241 -34.7145 -34.7086 -33.4306
   -33.3647 -33.3024 -25.9424 -25.9392 -25.9249 -25.9227 -25.9184 -25.9125
   -25.9124 -11.3890 -10.9327 -10.2950  -9.5156  -3.5856  -3.2879  -2.6830
    -2.4553  -2.2947  -2.0765  -0.8624  -0.3910  -0.1995   0.3048   0.4804
     0.4956   0.7048   1.3102   3.4527   3.5038   3.8506   4.3604   4.5736
     5.3369   5.5145   6.6960   7.3975   7.8895

          k = 0.0000 0.1382 0.0000 ( 14906 PWs)   bands (ev):

   -71.7314 -59.2585 -36.1762 -36.1543 -36.0529 -34.8478 -34.8243 -34.8155
   -34.8006 -34.7755 -34.7726 -34.7352 -34.7196 -34.7059 -34.7001 -33.4645
   -33.3575 -33.3103 -25.9427 -25.9388 -25.9256 -25.9230 -25.9174 -25.9134
   -25.9121 -11.0872 -10.7694  -9.7189  -9.1874  -4.2674  -3.6901  -3.2304
    -2.8038  -2.3174  -2.0535  -1.0542  -0.6223  -0.3360   0.1493   0.5262
     0.7131   0.7768   1.5930   3.4133   3.6423   4.0215   4.2270   4.8424
     5.4332   5.8020   6.4581   6.7422   7.5989

          k = 0.0000 0.1612 0.0000 ( 14970 PWs)   bands (ev):

   -71.7307 -59.2568 -36.1813 -36.1687 -36.0576 -34.8506 -34.8242 -34.8126
   -34.7983 -34.7774 -34.7725 -34.7331 -34.7171 -34.7045 -34.6920 -33.4829
   -33.3535 -33.3147 -25.9428 -25.9386 -25.9260 -25.9232 -25.9169 -25.9139
   -25.9118 -10.9073 -10.6747  -9.3204  -8.9776  -4.7819  -3.9430  -3.6005
    -3.0374  -2.2765  -2.0477  -1.1536  -0.7423  -0.3895   0.0799   0.7234
     0.8258   0.9091   1.7337   3.3883   3.8005   4.2078   4.2188   4.9766
     5.4760   5.6712   6.0050   6.7572   7.0607

          k = 0.0199 0.0345 0.0000 ( 14847 PWs)   bands (ev):

   -71.7378 -59.2736 -36.1259 -36.0229 -36.0095 -34.8440 -34.8411 -34.8230
   -34.8184 -34.7720 -34.7685 -34.7646 -34.7479 -34.7299 -34.7228 -33.3938
   -33.2917 -33.2704 -25.9415 -25.9409 -25.9224 -25.9221 -25.9217 -25.9143
   -25.9081 -12.3814 -11.8830 -11.4504 -10.4629  -4.3009  -3.4427  -1.1282
    -1.0040  -0.5851  -0.4008  -0.2978   0.0732   0.1522   0.6107   0.7297
     1.1096   1.1490   1.7682   3.9413   4.0468   4.2945   4.5987   5.1287
     5.2078   5.7004   6.0942   6.4799   6.7095

          k = 0.0199 0.0576 0.0000 ( 14850 PWs)   bands (ev):

   -71.7365 -59.2707 -36.1361 -36.0476 -36.0184 -34.8391 -34.8343 -34.8261
   -34.8162 -34.7725 -34.7667 -34.7554 -34.7454 -34.7318 -34.7188 -33.3868
   -33.3247 -33.2791 -25.9417 -25.9405 -25.9228 -25.9219 -25.9213 -25.9139
   -25.9092 -12.1654 -11.5812 -11.3190 -10.2700  -3.9928  -3.1913  -1.4715
    -1.3723  -1.1626  -0.7366  -0.3097  -0.2077   0.2318   0.3801   0.6069
     1.0490   1.0883   1.4868   3.6545   3.8235   4.0099   4.4444   4.7747
     4.9566   5.1589   6.2945   6.8029   7.0341

          k = 0.0199 0.0806 0.0000 ( 14889 PWs)   bands (ev):

   -71.7349 -59.2669 -36.1488 -36.0794 -36.0299 -34.8346 -34.8316 -34.8259
   -34.8126 -34.7730 -34.7672 -34.7451 -34.7387 -34.7301 -34.7141 -33.3778
   -33.3667 -33.2903 -25.9419 -25.9401 -25.9237 -25.9222 -25.9201 -25.9134
   -25.9106 -11.8696 -11.2321 -11.0561  -9.9948  -3.6138  -2.9269  -1.9878
    -1.8681  -1.7062  -1.3188  -0.6764  -0.2593   0.0177   0.4239   0.5351
     0.8581   0.9563   1.1393   3.4010   3.6938   3.8185   4.1188   4.6679
     4.8764   5.1922   6.4561   7.2377   7.4706

          k = 0.0199 0.1036 0.0000 ( 14923 PWs)   bands (ev):

   -71.7333 -59.2630 -36.1617 -36.1128 -36.0419 -34.8389 -34.8280 -34.8209
   -34.8082 -34.7734 -34.7704 -34.7407 -34.7268 -34.7210 -34.7097 -33.4102
   -33.3683 -33.3019 -25.9422 -25.9395 -25.9246 -25.9225 -25.9189 -25.9128
   -25.9120 -11.5305 -11.0113 -10.5400  -9.6610  -3.4045  -3.0307  -2.4545
    -2.2994  -2.1184  -1.9442  -0.9468  -0.5927   0.1334   0.1825   0.3394
     0.6018   0.8089   1.2591   3.3086   3.5527   3.7715   4.2582   4.4699
     5.1048   5.4066   6.5219   7.7117   7.9760

          k = 0.0199 0.1266 0.0000 ( 14935 PWs)   bands (ev):

   -71.7318 -59.2596 -36.1727 -36.1421 -36.0524 -34.8442 -34.8256 -34.8160
   -34.8039 -34.7745 -34.7732 -34.7367 -34.7219 -34.7062 -34.7049 -33.4479
   -33.3601 -33.3120 -25.9425 -25.9391 -25.9253 -25.9229 -25.9177 -25.9131
   -25.9123 -11.2024 -10.8291  -9.9528  -9.3144  -3.8740  -3.4635  -2.9382
    -2.6262  -2.3187  -2.0423  -1.1071  -0.7844  -0.1090   0.2035   0.2345
     0.3632   0.9015   1.4880   3.3645   3.5790   3.8340   4.3301   4.6456
     5.2963   5.6228   6.4699   7.1153   8.0664

          k = 0.0199 0.1497 0.0000 ( 14952 PWs)   bands (ev):

   -71.7309 -59.2572 -36.1800 -36.1620 -36.0595 -34.8480 -34.8248 -34.8126
   -34.8006 -34.7770 -34.7733 -34.7339 -34.7186 -34.7041 -34.6934 -33.4733
   -33.3545 -33.3188 -25.9427 -25.9388 -25.9258 -25.9232 -25.9170 -25.9139
   -25.9119 -10.9567 -10.6978  -9.4433  -9.0344  -4.5177  -3.7904  -3.4408
    -2.9591  -2.2656  -2.0204  -1.1910  -0.8787  -0.2847   0.1307   0.3121
     0.4114   1.0756   1.6140   3.4024   3.7391   4.0477   4.3508   4.9084
     5.3117   5.8390   6.1815   6.3384   7.4056

          k = 0.0199 0.1727 0.0000 ( 14974 PWs)   bands (ev):

   -71.7305 -59.2564 -36.1826 -36.1691 -36.0620 -34.8494 -34.8246 -34.8113
   -34.7994 -34.7779 -34.7732 -34.7329 -34.7174 -34.7034 -34.6892 -33.4823
   -33.3525 -33.3213 -25.9428 -25.9386 -25.9260 -25.9233 -25.9167 -25.9141
   -25.9118 -10.8645 -10.6492  -9.2265  -8.9230  -4.7927  -3.9175  -3.6378
    -3.0814  -2.2532  -2.0237  -1.2171  -0.9059  -0.3462   0.0782   0.3627
     0.5125   1.1625   1.6514   3.4010   3.8413   4.1862   4.3985   5.0075
     5.2769   5.6963   6.0760   6.1893   7.0710

          k = 0.0399 0.0691 0.0000 ( 14875 PWs)   bands (ev):

   -71.7352 -59.2675 -36.1469 -36.0732 -36.0296 -34.8357 -34.8306 -34.8252
   -34.8147 -34.7734 -34.7668 -34.7459 -34.7405 -34.7309 -34.7144 -33.3791
   -33.3580 -33.2911 -25.9418 -25.9402 -25.9235 -25.9221 -25.9203 -25.9134
   -25.9104 -11.9159 -11.2733 -11.1122 -10.0386  -3.6581  -2.9403  -1.8845
    -1.7277  -1.5683  -1.0983  -0.8299  -0.4563  -0.0824   0.3854   0.6333
     0.9447   1.1062   1.2791   3.4083   3.6640   3.7720   4.0819   4.5620
     4.7149   5.2057   6.3943   7.2107   7.4143

          k = 0.0399 0.0921 0.0000 ( 14908 PWs)   bands (ev):

   -71.7336 -59.2638 -36.1590 -36.1022 -36.0430 -34.8351 -34.8305 -34.8195
   -34.8123 -34.7744 -34.7694 -34.7418 -34.7288 -34.7239 -34.7099 -33.3951
   -33.3703 -33.3057 -25.9420 -25.9398 -25.9243 -25.9225 -25.9191 -25.9129
   -25.9118 -11.6064 -11.0542 -10.6661  -9.7368  -3.3533  -2.8485  -2.2649
    -2.1742  -1.8969  -1.6813  -1.2037  -0.9298  -0.1091   0.0655   0.4884
     0.8516   0.9532   1.3155   3.2045   3.4645   3.7563   3.9764   4.4289
     4.7440   5.4095   6.4537   7.7035   7.9018

          k = 0.0399 0.1151 0.0000 ( 14948 PWs)   bands (ev):

   -71.7322 -59.2603 -36.1703 -36.1298 -36.0559 -34.8389 -34.8280 -34.8147
   -34.8089 -34.7754 -34.7730 -34.7381 -34.7241 -34.7075 -34.7059 -33.4299
   -33.3619 -33.3199 -25.9422 -25.9394 -25.9250 -25.9229 -25.9180 -25.9130
   -25.9124 -11.2809 -10.8685 -10.1064  -9.3976  -3.4922  -3.2032  -2.6090
    -2.4479  -2.2354  -1.9989  -1.3563  -1.1002  -0.2926  -0.2400   0.2109
     0.5910   0.9432   1.4493   3.1917   3.5280   3.7373   4.2138   4.4733
     4.8978   5.4992   6.4892   7.9377   8.2327

          k = 0.0399 0.1382 0.0000 ( 14957 PWs)   bands (ev):

   -71.7310 -59.2576 -36.1789 -36.1514 -36.0661 -34.8427 -34.8262 -34.8111
   -34.8057 -34.7770 -34.7749 -34.7351 -34.7206 -34.7031 -34.6935 -33.4569
   -33.3553 -33.3312 -25.9424 -25.9391 -25.9255 -25.9232 -25.9171 -25.9140
   -25.9120 -11.0006 -10.7150  -9.5551  -9.0814  -4.0919  -3.5205  -3.1863
    -2.8574  -2.2147  -1.9480  -1.3649  -1.1716  -0.4009  -0.2808  -0.0692
     0.2852   1.1073   1.5064   3.3553   3.6986   3.9005   4.4431   4.5809
     5.0552   5.4584   6.4924   6.9081   7.9650

          k = 0.0399 0.1612 0.0000 ( 14970 PWs)   bands (ev):

   -71.7304 -59.2560 -36.1835 -36.1632 -36.0716 -34.8449 -34.8255 -34.8092
   -34.8037 -34.7785 -34.7753 -34.7334 -34.7187 -34.7016 -34.6857 -33.4716
   -33.3516 -33.3373 -25.9425 -25.9389 -25.9258 -25.9235 -25.9166 -25.9144
   -25.9118 -10.8353 -10.6258  -9.1805  -8.8802  -4.5412  -3.7161  -3.5582
    -3.0963  -2.2071  -1.9640  -1.3271  -1.1969  -0.3875  -0.2815  -0.1739
     0.1079   1.2647   1.5626   3.3834   3.8756   4.1186   4.5789   4.7378
     5.1793   5.3237   6.1038   6.5710   7.3723

          k = 0.0598 0.1036 0.0000 ( 14907 PWs)   bands (ev):

   -71.7323 -59.2606 -36.1694 -36.1242 -36.0583 -34.8358 -34.8289 -34.8142
   -34.8116 -34.7761 -34.7727 -34.7386 -34.7249 -34.7083 -34.7057 -33.4214
   -33.3625 -33.3249 -25.9421 -25.9395 -25.9249 -25.9228 -25.9181 -25.9130
   -25.9124 -11.3087 -10.8823 -10.1596  -9.4264  -3.3392  -3.0672  -2.4393
    -2.3213  -2.1652  -1.9732  -1.5363  -1.2521  -0.5567  -0.4712   0.3540
     0.7131   0.9540   1.4431   3.1065   3.4863   3.7258   4.0735   4.4579
     4.6549   5.5137   6.5417   8.2348   8.3675

          k = 0.0598 0.1266 0.0000 ( 14940 PWs)   bands (ev):

   -71.7311 -59.2577 -36.1782 -36.1424 -36.0728 -34.8371 -34.8275 -34.8120
   -34.8085 -34.7779 -34.7757 -34.7359 -34.7219 -34.7023 -34.6933 -33.4423
   -33.3557 -33.3437 -25.9421 -25.9393 -25.9253 -25.9233 -25.9172 -25.9141
   -25.9120 -11.0264 -10.7242  -9.6203  -9.1079  -3.7148  -3.2840  -2.9306
    -2.7767  -2.1472  -1.8499  -1.5738  -1.3409  -1.0402  -0.8311   0.0808
     0.4052   1.0939   1.4578   3.2640   3.7003   3.8128   4.2985   4.5097
     4.5943   5.5265   6.7293   7.5748   8.4892

          k = 0.0598 0.1497 0.0000 ( 14968 PWs)   bands (ev):

   -71.7302 -59.2558 -36.1841 -36.1542 -36.0831 -34.8386 -34.8264 -34.8107
   -34.8059 -34.7793 -34.7774 -34.7341 -34.7200 -34.7001 -34.6829 -33.4554
   -33.3574 -33.3511 -25.9421 -25.9392 -25.9255 -25.9236 -25.9166 -25.9148
   -25.9118 -10.8199 -10.6093  -9.1699  -8.8539  -4.1300  -3.4428  -3.3887
    -3.0934  -2.1487  -1.9156  -1.5329  -1.3773  -1.1337  -0.9529  -0.1955
     0.1439   1.2882   1.5406   3.3112   3.8104   4.0931   4.3619   4.5764
     4.7409   5.4849   6.6693   7.0197   7.8705

          k = 0.0598 0.1727 0.0000 ( 14983 PWs)   bands (ev):

   -71.7300 -59.2551 -36.1862 -36.1583 -36.0868 -34.8392 -34.8261 -34.8101
   -34.8049 -34.7798 -34.7779 -34.7335 -34.7193 -34.6994 -34.6791 -33.4599
   -33.3624 -33.3494 -25.9421 -25.9392 -25.9256 -25.9238 -25.9164 -25.9150
   -25.9117 -10.7437 -10.5667  -8.9850  -8.7539  -4.3114  -3.5945  -3.4673
    -3.2071  -2.1903  -1.9935  -1.4987  -1.3686  -1.1326  -0.9379  -0.3174
     0.0400   1.3954   1.6227   3.2455   3.8465   4.1837   4.3657   4.5953
     5.0031   5.4223   6.3382   7.0483   7.5778

          k = 0.0798 0.1382 0.0000 ( 14981 PWs)   bands (ev):

   -71.7302 -59.2557 -36.1843 -36.1492 -36.0889 -34.8348 -34.8269 -34.8142
   -34.8048 -34.7800 -34.7780 -34.7344 -34.7204 -34.6996 -34.6818 -33.4459
   -33.3682 -33.3509 -25.9420 -25.9394 -25.9254 -25.9237 -25.9166 -25.9149
   -25.9118 -10.8153 -10.6034  -9.1701  -8.8453  -3.8818  -3.3506  -3.2334
    -3.0849  -2.0925  -1.9495  -1.6140  -1.5166  -1.4084  -1.3209  -0.1665
     0.1657   1.2912   1.5393   3.2708   3.7452   4.1019   4.2764   4.3313
     4.7566   5.5810   6.9970   7.3052   8.0832

          k = 0.0798 0.1612 0.0000 ( 14998 PWs)   bands (ev):

   -71.7297 -59.2546 -36.1876 -36.1514 -36.0992 -34.8331 -34.8266 -34.8158
   -34.8025 -34.7811 -34.7795 -34.7337 -34.7197 -34.6982 -34.6753 -33.4438
   -33.3859 -33.3482 -25.9418 -25.9394 -25.9253 -25.9241 -25.9163 -25.9153
   -25.9116 -10.6951 -10.5332  -8.8855  -8.6826  -3.9468  -3.5871  -3.2922
    -3.1261  -2.4028  -2.1326  -1.8208  -1.5222  -1.3694  -1.3194  -0.3821
     0.0015   1.4878   1.7270   3.1018   3.6178   4.1521   4.2432   4.3485
     5.2257   5.6100   6.7435   7.3723   7.7204

          k = 0.0997 0.1727 0.0000 ( 15021 PWs)   bands (ev):

   -71.7296 -59.2542 -36.1888 -36.1485 -36.1069 -34.8290 -34.8274 -34.8191
   -34.8011 -34.7819 -34.7803 -34.7337 -34.7197 -34.6975 -34.6726 -33.4314
   -33.4041 -33.3472 -25.9417 -25.9395 -25.9251 -25.9243 -25.9162 -25.9154
   -25.9116 -10.6507 -10.5053  -8.7804  -8.6179  -3.7302  -3.6534  -3.3529
    -2.9102  -2.7404  -2.3592  -2.0191  -1.5603  -1.3656  -1.3052  -0.4842
    -0.0553   1.5964   1.8715   2.9730   3.4143   4.0577   4.1476   4.4926
     5.5178   5.6683   6.8642   7.2430   7.4636

     highest occupied, lowest unoccupied level (ev):     1.9146    2.9730

!    total energy              =   -1068.60014683 Ry
     estimated scf accuracy    <       0.00000004 Ry

     The total energy is the sum of the following terms:
     one-electron contribution =  -16959.10226826 Ry
     hartree contribution      =    8479.34615815 Ry
     xc contribution           =    -104.06625945 Ry
     ewald contribution        =    7515.22222272 Ry

     convergence has been achieved in   4 iterations

     Forces acting on atoms (cartesian axes, Ry/au):

     atom    1 type  1   force =     0.00000000    0.00000000   -0.00128070
     atom    2 type  2   force =    -0.00000000   -0.00000000   -0.00764035
     atom    3 type  2   force =     0.00000000    0.00000000    0.00185549
     atom    4 type  3   force =     0.00000000    0.00000000    0.00176327
     atom    5 type  4   force =     0.00000000    0.00000000    0.11060819
     atom    6 type  4   force =     0.00000000    0.00000000   -0.10530590

     Total force =     0.152938     Total SCF correction =     0.002304

     Writing all to output data dir ./calc.save/

     init_run     :      1.77s CPU      4.33s WALL (       1 calls)
     electrons    :    176.92s CPU     61.05s WALL (       1 calls)
     forces       :      4.23s CPU      1.18s WALL (       1 calls)

     Called by init_run:
     wfcinit      :      0.91s CPU      3.20s WALL (       1 calls)
     potinit      :      0.01s CPU      0.09s WALL (       1 calls)
     hinit0       :      0.82s CPU      1.01s WALL (       1 calls)

     Called by electrons:
     c_bands      :    175.53s CPU     59.72s WALL (       5 calls)
     sum_band     :      1.34s CPU      1.29s WALL (       5 calls)
     v_of_rho     :      0.03s CPU      0.03s WALL (       5 calls)
     mix_rho      :      0.00s CPU      0.00s WALL (       5 calls)

     Called by c_bands:
     init_us_2    :      3.39s CPU      0.66s WALL (     297 calls)
     init_us_2:cp :      3.39s CPU      0.66s WALL (     297 calls)
     cegterg      :    171.54s CPU     58.50s WALL (     135 calls)

     Called by *egterg:
     cdiaghg      :     97.34s CPU     33.28s WALL (     918 calls)
     h_psi        :     39.55s CPU     16.27s WALL (     972 calls)
     g_psi        :      1.72s CPU      1.17s WALL (     837 calls)

     Called by h_psi:
     h_psi:calbec :      3.80s CPU      1.64s WALL (     972 calls)
     vloc_psi     :     22.47s CPU     11.97s WALL (     972 calls)
     add_vuspsi   :      8.47s CPU      2.25s WALL (     972 calls)

     General routines
     calbec       :      4.27s CPU      1.97s WALL (    1080 calls)
     fft          :      0.09s CPU      0.09s WALL (      52 calls)
     ffts         :      0.00s CPU      0.00s WALL (       5 calls)
     fftw         :     22.10s CPU     12.32s WALL (   63861 calls)

     Parallel routines

     PWSCF        :   3m 3.30s CPU   1m 9.31s WALL


   This run was terminated on:  17:14:10  29Jun2023            

=------------------------------------------------------------------------------=
   JOB DONE.
=------------------------------------------------------------------------------=
