
     Program PWSCF v.7.1 starts on 29Jun2023 at 17:14:15 

     This program is part of the open-source Quantum ESPRESSO suite
     for quantum simulation of materials; please cite
         "P. Giannozzi et al., J. Phys.:Condens. Matter 21 395502 (2009);
         "P. Giannozzi et al., J. Phys.:Condens. Matter 29 465901 (2017);
         "P. Giannozzi et al., J. Chem. Phys. 152 154105 (2020);
          URL http://www.quantum-espresso.org", 
     in publications or presentations arising from this work. More details at
     http://www.quantum-espresso.org/quote

     Parallel version (MPI), running on    42 processors

     MPI processes distributed on     1 nodes
     570391 MiB available memory on the printing compute node when the environment starts

     Waiting for input...
     Reading input from standard input

     Current dimensions of program PWSCF are:
     Max number of different atomic species (ntypx) = 10
     Max number of k-points (npk) =  40000
     Max angular momentum in pseudopotentials (lmaxx) =  4
     Message from routine input:
     WARNING: "startingwfc" set to atomic+random may spoil restart
     Message from routine cell_base_init:
     DEPRECATED: use true lattice parameter, not A to a.u. conversion factor

     IMPORTANT: XC functional enforced from input :
     Exchange-correlation= PBE
                           (   1   4   3   4   0   0   0)
     Any further DFT definition will be discarded
     Please, verify this is what you really want

     Message from routine setup:
     using ibrav=0 with symmetry is DISCOURAGED, use correct ibrav instead

     R & G space division:  proc/nbgrp/npool/nimage =      42
     Subspace diagonalization in iterative solution of the eigenvalue problem:
     a serial algorithm will be used


     Parallelization info
     --------------------
     sticks:   dense  smooth     PW     G-vecs:    dense   smooth      PW
     Min          13      13      4                 2833     2833     464
     Max          14      14      5                 2880     2880     522
     Sum         559     559    169               119551   119551   21341

     Using Slab Decomposition



     bravais-lattice index     =            0
     lattice parameter (alat)  =       1.8897  a.u.
     unit-cell volume          =    2500.3183 (a.u.)^3
     number of atoms/cell      =            6
     number of atomic types    =            4
     number of electrons       =        86.00
     number of Kohn-Sham states=           53
     kinetic-energy cutoff     =      50.0000  Ry
     charge density cutoff     =     199.9999  Ry
     Exchange-correlation= PBE
                           (   1   4   3   4   0   0   0)

     celldm(1)=   1.889726  celldm(2)=   0.000000  celldm(3)=   0.000000
     celldm(4)=   0.000000  celldm(5)=   0.000000  celldm(6)=   0.000000

     crystal axes: (cart. coord. in units of alat)
               a(1) = (   3.343090   0.000000   0.000000 )  
               a(2) = (  -1.671545   2.895201   0.000000 )  
               a(3) = (   0.000000   0.000000  38.280000 )  

     reciprocal axes: (cart. coord. in units 2 pi/alat)
               b(1) = (  0.299124  0.172700 -0.000000 )  
               b(2) = (  0.000000  0.345399  0.000000 )  
               b(3) = (  0.000000 -0.000000  0.026123 )  


     PseudoPot. # 1 for Mo read from file:
     /ccs/home/dpalmer3/qe-7.1/pseudo/Mo.UPF
     MD5 check sum: e75ed155aa411dd1617a1e98b4cfb1d3
     Pseudo is Norm-conserving, Zval = 14.0
     Generated using ONCVPSP code by D. R. Hamann
     Using radial grid of  602 points,  6 beta functions with: 
                l(1) =   0
                l(2) =   0
                l(3) =   1
                l(4) =   1
                l(5) =   2
                l(6) =   2

     PseudoPot. # 2 for Se read from file:
     /ccs/home/dpalmer3/qe-7.1/pseudo/Se.UPF
     MD5 check sum: e78e48a4f5d8ce1f8dc76ec1271f249c
     Pseudo is Norm-conserving, Zval =  6.0
     Generated using ONCVPSP code by D. R. Hamann
     Using radial grid of  602 points,  6 beta functions with: 
                l(1) =   0
                l(2) =   0
                l(3) =   1
                l(4) =   1
                l(5) =   2
                l(6) =   2

     PseudoPot. # 3 for W  read from file:
     /ccs/home/dpalmer3/qe-7.1/pseudo/W.UPF
     MD5 check sum: b6096f31a98cdd82a46cfdcd1f902baf
     Pseudo is Norm-conserving, Zval = 28.0
     Generated using ONCVPSP code by D. R. Hamann
     Using radial grid of  602 points,  8 beta functions with: 
                l(1) =   0
                l(2) =   0
                l(3) =   1
                l(4) =   1
                l(5) =   2
                l(6) =   2
                l(7) =   3
                l(8) =   3

     PseudoPot. # 4 for Te read from file:
     /ccs/home/dpalmer3/qe-7.1/pseudo/Te.UPF
     MD5 check sum: dd4de4dac1e38587f63aaf3700bb29d3
     Pseudo is Norm-conserving, Zval = 16.0
     Generated using ONCVPSP code by D. R. Hamann
     Using radial grid of  602 points,  6 beta functions with: 
                l(1) =   0
                l(2) =   0
                l(3) =   1
                l(4) =   1
                l(5) =   2
                l(6) =   2

     atomic species   valence    mass     pseudopotential
        Mo1           14.00    95.95000     Mo( 1.00)
        Se1            6.00    78.97100     Se( 1.00)
        W1            28.00   183.84000     W ( 1.00)
        Te1           16.00   127.60000     Te( 1.00)

      6 Sym. Ops. (no inversion) found


                                    s                        frac. trans.

      isym =  1     identity                                     

 cryst.   s( 1) = (     1          0          0      )
                  (     0          1          0      )
                  (     0          0          1      )

 cart.    s( 1) = (  1.0000000  0.0000000  0.0000000 )
                  (  0.0000000  1.0000000  0.0000000 )
                  (  0.0000000  0.0000000  1.0000000 )


      isym =  2     120 deg rotation - cryst. axis [0,0,1]       

 cryst.   s( 2) = (     0          1          0      )
                  (    -1         -1          0      )
                  (     0          0          1      )

 cart.    s( 2) = ( -0.5000000 -0.8660254  0.0000000 )
                  (  0.8660254 -0.5000000  0.0000000 )
                  (  0.0000000  0.0000000  1.0000000 )


      isym =  3     120 deg rotation - cryst. axis [0,0,-1]      

 cryst.   s( 3) = (    -1         -1          0      )
                  (     1          0          0      )
                  (     0          0          1      )

 cart.    s( 3) = ( -0.5000000  0.8660254  0.0000000 )
                  ( -0.8660254 -0.5000000  0.0000000 )
                  (  0.0000000  0.0000000  1.0000000 )


      isym =  4     inv. 180 deg rotation - cart. axis [1,0,0]   

 cryst.   s( 4) = (    -1          0          0      )
                  (     1          1          0      )
                  (     0          0          1      )

 cart.    s( 4) = ( -1.0000000  0.0000000  0.0000000 )
                  (  0.0000000  1.0000000  0.0000000 )
                  (  0.0000000  0.0000000  1.0000000 )


      isym =  5     inv. 180 deg rotation - cryst. axis [0,1,0]  

 cryst.   s( 5) = (     1          1          0      )
                  (     0         -1          0      )
                  (     0          0          1      )

 cart.    s( 5) = (  0.5000000  0.8660254  0.0000000 )
                  (  0.8660254 -0.5000000  0.0000000 )
                  (  0.0000000  0.0000000  1.0000000 )


      isym =  6     inv. 180 deg rotation - cryst. axis [1,1,0]  

 cryst.   s( 6) = (     0         -1          0      )
                  (    -1          0          0      )
                  (     0          0          1      )

 cart.    s( 6) = (  0.5000000 -0.8660254  0.0000000 )
                  ( -0.8660254 -0.5000000  0.0000000 )
                  (  0.0000000  0.0000000  1.0000000 )


   Cartesian axes

     site n.     atom                  positions (alat units)
         1           Mo1 tau(   1) = (   0.0000000   0.0000000  11.6650000  )
         2           Se1 tau(   2) = (   1.6715450   0.9650670  13.3300000  )
         3           Se1 tau(   3) = (   1.6715450   0.9650670  10.0000000  )
         4           W1  tau(   4) = (   1.6715450   0.9650670  18.2800000  )
         5           Te1 tau(   5) = (  -0.0000000   1.9301339  20.0300000  )
         6           Te1 tau(   6) = (  -0.0000000   1.9301339  16.5300000  )

   Crystallographic axes

     site n.     atom                  positions (cryst. coord.)
         1           Mo1 tau(   1) = (  0.0000000  0.0000000  0.3047283  )
         2           Se1 tau(   2) = (  0.6666667  0.3333333  0.3482236  )
         3           Se1 tau(   3) = (  0.6666667  0.3333333  0.2612330  )
         4           W1  tau(   4) = (  0.6666667  0.3333333  0.4775340  )
         5           Te1 tau(   5) = (  0.3333333  0.6666667  0.5232497  )
         6           Te1 tau(   6) = (  0.3333333  0.6666667  0.4318182  )

     number of k points=   225
                       cart. coord. in units 2pi/alat
        k(    1) = (  -0.1395914  -0.2417794   0.0000000), wk =   0.0088889
        k(    2) = (  -0.1395914  -0.2187528   0.0000000), wk =   0.0088889
        k(    3) = (  -0.1395914  -0.1957262   0.0000000), wk =   0.0088889
        k(    4) = (  -0.1395914  -0.1726996   0.0000000), wk =   0.0088889
        k(    5) = (  -0.1395914  -0.1496730   0.0000000), wk =   0.0088889
        k(    6) = (  -0.1395914  -0.1266464   0.0000000), wk =   0.0088889
        k(    7) = (  -0.1395914  -0.1036198   0.0000000), wk =   0.0088889
        k(    8) = (  -0.1395914  -0.0805931   0.0000000), wk =   0.0088889
        k(    9) = (  -0.1395914  -0.0575665   0.0000000), wk =   0.0088889
        k(   10) = (  -0.1395914  -0.0345399   0.0000000), wk =   0.0088889
        k(   11) = (  -0.1395914  -0.0115133   0.0000000), wk =   0.0088889
        k(   12) = (  -0.1395914   0.0115133   0.0000000), wk =   0.0088889
        k(   13) = (  -0.1395914   0.0345399   0.0000000), wk =   0.0088889
        k(   14) = (  -0.1395914   0.0575665   0.0000000), wk =   0.0088889
        k(   15) = (  -0.1395914   0.0805931   0.0000000), wk =   0.0088889
        k(   16) = (  -0.1196498  -0.2302661   0.0000000), wk =   0.0088889
        k(   17) = (  -0.1196498  -0.2072395   0.0000000), wk =   0.0088889
        k(   18) = (  -0.1196498  -0.1842129   0.0000000), wk =   0.0088889
        k(   19) = (  -0.1196498  -0.1611863   0.0000000), wk =   0.0088889
        k(   20) = (  -0.1196498  -0.1381597   0.0000000), wk =   0.0088889
        k(   21) = (  -0.1196498  -0.1151331   0.0000000), wk =   0.0088889
        k(   22) = (  -0.1196498  -0.0921064   0.0000000), wk =   0.0088889
        k(   23) = (  -0.1196498  -0.0690798   0.0000000), wk =   0.0088889
        k(   24) = (  -0.1196498  -0.0460532   0.0000000), wk =   0.0088889
        k(   25) = (  -0.1196498  -0.0230266   0.0000000), wk =   0.0088889
        k(   26) = (  -0.1196498   0.0000000   0.0000000), wk =   0.0088889
        k(   27) = (  -0.1196498   0.0230266   0.0000000), wk =   0.0088889
        k(   28) = (  -0.1196498   0.0460532   0.0000000), wk =   0.0088889
        k(   29) = (  -0.1196498   0.0690798   0.0000000), wk =   0.0088889
        k(   30) = (  -0.1196498   0.0921064   0.0000000), wk =   0.0088889
        k(   31) = (  -0.0997082  -0.2187528   0.0000000), wk =   0.0088889
        k(   32) = (  -0.0997082  -0.1957262   0.0000000), wk =   0.0088889
        k(   33) = (  -0.0997082  -0.1726996   0.0000000), wk =   0.0088889
        k(   34) = (  -0.0997082  -0.1496730   0.0000000), wk =   0.0088889
        k(   35) = (  -0.0997082  -0.1266464   0.0000000), wk =   0.0088889
        k(   36) = (  -0.0997082  -0.1036198   0.0000000), wk =   0.0088889
        k(   37) = (  -0.0997082  -0.0805931   0.0000000), wk =   0.0088889
        k(   38) = (  -0.0997082  -0.0575665   0.0000000), wk =   0.0088889
        k(   39) = (  -0.0997082  -0.0345399   0.0000000), wk =   0.0088889
        k(   40) = (  -0.0997082  -0.0115133   0.0000000), wk =   0.0088889
        k(   41) = (  -0.0997082   0.0115133   0.0000000), wk =   0.0088889
        k(   42) = (  -0.0997082   0.0345399   0.0000000), wk =   0.0088889
        k(   43) = (  -0.0997082   0.0575665   0.0000000), wk =   0.0088889
        k(   44) = (  -0.0997082   0.0805931   0.0000000), wk =   0.0088889
        k(   45) = (  -0.0997082   0.1036198   0.0000000), wk =   0.0088889
        k(   46) = (  -0.0797665  -0.2072395   0.0000000), wk =   0.0088889
        k(   47) = (  -0.0797665  -0.1842129   0.0000000), wk =   0.0088889
        k(   48) = (  -0.0797665  -0.1611863   0.0000000), wk =   0.0088889
        k(   49) = (  -0.0797665  -0.1381597   0.0000000), wk =   0.0088889
        k(   50) = (  -0.0797665  -0.1151331   0.0000000), wk =   0.0088889
        k(   51) = (  -0.0797665  -0.0921064   0.0000000), wk =   0.0088889
        k(   52) = (  -0.0797665  -0.0690798   0.0000000), wk =   0.0088889
        k(   53) = (  -0.0797665  -0.0460532   0.0000000), wk =   0.0088889
        k(   54) = (  -0.0797665  -0.0230266   0.0000000), wk =   0.0088889
        k(   55) = (  -0.0797665  -0.0000000   0.0000000), wk =   0.0088889
        k(   56) = (  -0.0797665   0.0230266   0.0000000), wk =   0.0088889
        k(   57) = (  -0.0797665   0.0460532   0.0000000), wk =   0.0088889
        k(   58) = (  -0.0797665   0.0690798   0.0000000), wk =   0.0088889
        k(   59) = (  -0.0797665   0.0921064   0.0000000), wk =   0.0088889
        k(   60) = (  -0.0797665   0.1151331   0.0000000), wk =   0.0088889
        k(   61) = (  -0.0598249  -0.1957262   0.0000000), wk =   0.0088889
        k(   62) = (  -0.0598249  -0.1726996   0.0000000), wk =   0.0088889
        k(   63) = (  -0.0598249  -0.1496730   0.0000000), wk =   0.0088889
        k(   64) = (  -0.0598249  -0.1266464   0.0000000), wk =   0.0088889
        k(   65) = (  -0.0598249  -0.1036198   0.0000000), wk =   0.0088889
        k(   66) = (  -0.0598249  -0.0805931   0.0000000), wk =   0.0088889
        k(   67) = (  -0.0598249  -0.0575665   0.0000000), wk =   0.0088889
        k(   68) = (  -0.0598249  -0.0345399   0.0000000), wk =   0.0088889
        k(   69) = (  -0.0598249  -0.0115133   0.0000000), wk =   0.0088889
        k(   70) = (  -0.0598249   0.0115133   0.0000000), wk =   0.0088889
        k(   71) = (  -0.0598249   0.0345399   0.0000000), wk =   0.0088889
        k(   72) = (  -0.0598249   0.0575665   0.0000000), wk =   0.0088889
        k(   73) = (  -0.0598249   0.0805931   0.0000000), wk =   0.0088889
        k(   74) = (  -0.0598249   0.1036198   0.0000000), wk =   0.0088889
        k(   75) = (  -0.0598249   0.1266464   0.0000000), wk =   0.0088889
        k(   76) = (  -0.0398833  -0.1842129   0.0000000), wk =   0.0088889
        k(   77) = (  -0.0398833  -0.1611863   0.0000000), wk =   0.0088889
        k(   78) = (  -0.0398833  -0.1381597   0.0000000), wk =   0.0088889
        k(   79) = (  -0.0398833  -0.1151331   0.0000000), wk =   0.0088889
        k(   80) = (  -0.0398833  -0.0921064   0.0000000), wk =   0.0088889
        k(   81) = (  -0.0398833  -0.0690798   0.0000000), wk =   0.0088889
        k(   82) = (  -0.0398833  -0.0460532   0.0000000), wk =   0.0088889
        k(   83) = (  -0.0398833  -0.0230266   0.0000000), wk =   0.0088889
        k(   84) = (  -0.0398833  -0.0000000   0.0000000), wk =   0.0088889
        k(   85) = (  -0.0398833   0.0230266   0.0000000), wk =   0.0088889
        k(   86) = (  -0.0398833   0.0460532   0.0000000), wk =   0.0088889
        k(   87) = (  -0.0398833   0.0690798   0.0000000), wk =   0.0088889
        k(   88) = (  -0.0398833   0.0921064   0.0000000), wk =   0.0088889
        k(   89) = (  -0.0398833   0.1151331   0.0000000), wk =   0.0088889
        k(   90) = (  -0.0398833   0.1381597   0.0000000), wk =   0.0088889
        k(   91) = (  -0.0199416  -0.1726996   0.0000000), wk =   0.0088889
        k(   92) = (  -0.0199416  -0.1496730   0.0000000), wk =   0.0088889
        k(   93) = (  -0.0199416  -0.1266464   0.0000000), wk =   0.0088889
        k(   94) = (  -0.0199416  -0.1036198   0.0000000), wk =   0.0088889
        k(   95) = (  -0.0199416  -0.0805931   0.0000000), wk =   0.0088889
        k(   96) = (  -0.0199416  -0.0575665   0.0000000), wk =   0.0088889
        k(   97) = (  -0.0199416  -0.0345399   0.0000000), wk =   0.0088889
        k(   98) = (  -0.0199416  -0.0115133   0.0000000), wk =   0.0088889
        k(   99) = (  -0.0199416   0.0115133   0.0000000), wk =   0.0088889
        k(  100) = (  -0.0199416   0.0345399   0.0000000), wk =   0.0088889
        k(  101) = (  -0.0199416   0.0575665   0.0000000), wk =   0.0088889
        k(  102) = (  -0.0199416   0.0805931   0.0000000), wk =   0.0088889
        k(  103) = (  -0.0199416   0.1036198   0.0000000), wk =   0.0088889
        k(  104) = (  -0.0199416   0.1266464   0.0000000), wk =   0.0088889
        k(  105) = (  -0.0199416   0.1496730   0.0000000), wk =   0.0088889
        k(  106) = (   0.0000000  -0.1611863   0.0000000), wk =   0.0088889
        k(  107) = (   0.0000000  -0.1381597   0.0000000), wk =   0.0088889
        k(  108) = (   0.0000000  -0.1151331   0.0000000), wk =   0.0088889
        k(  109) = (   0.0000000  -0.0921064   0.0000000), wk =   0.0088889
        k(  110) = (   0.0000000  -0.0690798   0.0000000), wk =   0.0088889
        k(  111) = (   0.0000000  -0.0460532   0.0000000), wk =   0.0088889
        k(  112) = (   0.0000000  -0.0230266   0.0000000), wk =   0.0088889
        k(  113) = (   0.0000000   0.0000000   0.0000000), wk =   0.0088889
        k(  114) = (   0.0000000   0.0230266   0.0000000), wk =   0.0088889
        k(  115) = (   0.0000000   0.0460532   0.0000000), wk =   0.0088889
        k(  116) = (   0.0000000   0.0690798   0.0000000), wk =   0.0088889
        k(  117) = (   0.0000000   0.0921064   0.0000000), wk =   0.0088889
        k(  118) = (   0.0000000   0.1151331   0.0000000), wk =   0.0088889
        k(  119) = (   0.0000000   0.1381597   0.0000000), wk =   0.0088889
        k(  120) = (   0.0000000   0.1611863   0.0000000), wk =   0.0088889
        k(  121) = (   0.0199416  -0.1496730   0.0000000), wk =   0.0088889
        k(  122) = (   0.0199416  -0.1266464   0.0000000), wk =   0.0088889
        k(  123) = (   0.0199416  -0.1036198   0.0000000), wk =   0.0088889
        k(  124) = (   0.0199416  -0.0805931   0.0000000), wk =   0.0088889
        k(  125) = (   0.0199416  -0.0575665   0.0000000), wk =   0.0088889
        k(  126) = (   0.0199416  -0.0345399   0.0000000), wk =   0.0088889
        k(  127) = (   0.0199416  -0.0115133   0.0000000), wk =   0.0088889
        k(  128) = (   0.0199416   0.0115133   0.0000000), wk =   0.0088889
        k(  129) = (   0.0199416   0.0345399   0.0000000), wk =   0.0088889
        k(  130) = (   0.0199416   0.0575665   0.0000000), wk =   0.0088889
        k(  131) = (   0.0199416   0.0805931   0.0000000), wk =   0.0088889
        k(  132) = (   0.0199416   0.1036198   0.0000000), wk =   0.0088889
        k(  133) = (   0.0199416   0.1266464   0.0000000), wk =   0.0088889
        k(  134) = (   0.0199416   0.1496730   0.0000000), wk =   0.0088889
        k(  135) = (   0.0199416   0.1726996   0.0000000), wk =   0.0088889
        k(  136) = (   0.0398833  -0.1381597   0.0000000), wk =   0.0088889
        k(  137) = (   0.0398833  -0.1151331   0.0000000), wk =   0.0088889
        k(  138) = (   0.0398833  -0.0921064   0.0000000), wk =   0.0088889
        k(  139) = (   0.0398833  -0.0690798   0.0000000), wk =   0.0088889
        k(  140) = (   0.0398833  -0.0460532   0.0000000), wk =   0.0088889
        k(  141) = (   0.0398833  -0.0230266   0.0000000), wk =   0.0088889
        k(  142) = (   0.0398833  -0.0000000   0.0000000), wk =   0.0088889
        k(  143) = (   0.0398833   0.0230266   0.0000000), wk =   0.0088889
        k(  144) = (   0.0398833   0.0460532   0.0000000), wk =   0.0088889
        k(  145) = (   0.0398833   0.0690798   0.0000000), wk =   0.0088889
        k(  146) = (   0.0398833   0.0921064   0.0000000), wk =   0.0088889
        k(  147) = (   0.0398833   0.1151331   0.0000000), wk =   0.0088889
        k(  148) = (   0.0398833   0.1381597   0.0000000), wk =   0.0088889
        k(  149) = (   0.0398833   0.1611863   0.0000000), wk =   0.0088889
        k(  150) = (   0.0398833   0.1842129   0.0000000), wk =   0.0088889
        k(  151) = (   0.0598249  -0.1266464   0.0000000), wk =   0.0088889
        k(  152) = (   0.0598249  -0.1036198   0.0000000), wk =   0.0088889
        k(  153) = (   0.0598249  -0.0805931   0.0000000), wk =   0.0088889
        k(  154) = (   0.0598249  -0.0575665   0.0000000), wk =   0.0088889
        k(  155) = (   0.0598249  -0.0345399   0.0000000), wk =   0.0088889
        k(  156) = (   0.0598249  -0.0115133   0.0000000), wk =   0.0088889
        k(  157) = (   0.0598249   0.0115133   0.0000000), wk =   0.0088889
        k(  158) = (   0.0598249   0.0345399   0.0000000), wk =   0.0088889
        k(  159) = (   0.0598249   0.0575665   0.0000000), wk =   0.0088889
        k(  160) = (   0.0598249   0.0805931   0.0000000), wk =   0.0088889
        k(  161) = (   0.0598249   0.1036198   0.0000000), wk =   0.0088889
        k(  162) = (   0.0598249   0.1266464   0.0000000), wk =   0.0088889
        k(  163) = (   0.0598249   0.1496730   0.0000000), wk =   0.0088889
        k(  164) = (   0.0598249   0.1726996   0.0000000), wk =   0.0088889
        k(  165) = (   0.0598249   0.1957262   0.0000000), wk =   0.0088889
        k(  166) = (   0.0797665  -0.1151331   0.0000000), wk =   0.0088889
        k(  167) = (   0.0797665  -0.0921064   0.0000000), wk =   0.0088889
        k(  168) = (   0.0797665  -0.0690798   0.0000000), wk =   0.0088889
        k(  169) = (   0.0797665  -0.0460532   0.0000000), wk =   0.0088889
        k(  170) = (   0.0797665  -0.0230266   0.0000000), wk =   0.0088889
        k(  171) = (   0.0797665  -0.0000000   0.0000000), wk =   0.0088889
        k(  172) = (   0.0797665   0.0230266   0.0000000), wk =   0.0088889
        k(  173) = (   0.0797665   0.0460532   0.0000000), wk =   0.0088889
        k(  174) = (   0.0797665   0.0690798   0.0000000), wk =   0.0088889
        k(  175) = (   0.0797665   0.0921064   0.0000000), wk =   0.0088889
        k(  176) = (   0.0797665   0.1151331   0.0000000), wk =   0.0088889
        k(  177) = (   0.0797665   0.1381597   0.0000000), wk =   0.0088889
        k(  178) = (   0.0797665   0.1611863   0.0000000), wk =   0.0088889
        k(  179) = (   0.0797665   0.1842129   0.0000000), wk =   0.0088889
        k(  180) = (   0.0797665   0.2072395   0.0000000), wk =   0.0088889
        k(  181) = (   0.0997082  -0.1036198   0.0000000), wk =   0.0088889
        k(  182) = (   0.0997082  -0.0805931   0.0000000), wk =   0.0088889
        k(  183) = (   0.0997082  -0.0575665   0.0000000), wk =   0.0088889
        k(  184) = (   0.0997082  -0.0345399   0.0000000), wk =   0.0088889
        k(  185) = (   0.0997082  -0.0115133   0.0000000), wk =   0.0088889
        k(  186) = (   0.0997082   0.0115133   0.0000000), wk =   0.0088889
        k(  187) = (   0.0997082   0.0345399   0.0000000), wk =   0.0088889
        k(  188) = (   0.0997082   0.0575665   0.0000000), wk =   0.0088889
        k(  189) = (   0.0997082   0.0805931   0.0000000), wk =   0.0088889
        k(  190) = (   0.0997082   0.1036198   0.0000000), wk =   0.0088889
        k(  191) = (   0.0997082   0.1266464   0.0000000), wk =   0.0088889
        k(  192) = (   0.0997082   0.1496730   0.0000000), wk =   0.0088889
        k(  193) = (   0.0997082   0.1726996   0.0000000), wk =   0.0088889
        k(  194) = (   0.0997082   0.1957262   0.0000000), wk =   0.0088889
        k(  195) = (   0.0997082   0.2187528   0.0000000), wk =   0.0088889
        k(  196) = (   0.1196498  -0.0921064   0.0000000), wk =   0.0088889
        k(  197) = (   0.1196498  -0.0690798   0.0000000), wk =   0.0088889
        k(  198) = (   0.1196498  -0.0460532   0.0000000), wk =   0.0088889
        k(  199) = (   0.1196498  -0.0230266   0.0000000), wk =   0.0088889
        k(  200) = (   0.1196498  -0.0000000   0.0000000), wk =   0.0088889
        k(  201) = (   0.1196498   0.0230266   0.0000000), wk =   0.0088889
        k(  202) = (   0.1196498   0.0460532   0.0000000), wk =   0.0088889
        k(  203) = (   0.1196498   0.0690798   0.0000000), wk =   0.0088889
        k(  204) = (   0.1196498   0.0921064   0.0000000), wk =   0.0088889
        k(  205) = (   0.1196498   0.1151331   0.0000000), wk =   0.0088889
        k(  206) = (   0.1196498   0.1381597   0.0000000), wk =   0.0088889
        k(  207) = (   0.1196498   0.1611863   0.0000000), wk =   0.0088889
        k(  208) = (   0.1196498   0.1842129   0.0000000), wk =   0.0088889
        k(  209) = (   0.1196498   0.2072395   0.0000000), wk =   0.0088889
        k(  210) = (   0.1196498   0.2302661   0.0000000), wk =   0.0088889
        k(  211) = (   0.1395914  -0.0805931   0.0000000), wk =   0.0088889
        k(  212) = (   0.1395914  -0.0575665   0.0000000), wk =   0.0088889
        k(  213) = (   0.1395914  -0.0345399   0.0000000), wk =   0.0088889
        k(  214) = (   0.1395914  -0.0115133   0.0000000), wk =   0.0088889
        k(  215) = (   0.1395914   0.0115133   0.0000000), wk =   0.0088889
        k(  216) = (   0.1395914   0.0345399   0.0000000), wk =   0.0088889
        k(  217) = (   0.1395914   0.0575665   0.0000000), wk =   0.0088889
        k(  218) = (   0.1395914   0.0805931   0.0000000), wk =   0.0088889
        k(  219) = (   0.1395914   0.1036198   0.0000000), wk =   0.0088889
        k(  220) = (   0.1395914   0.1266464   0.0000000), wk =   0.0088889
        k(  221) = (   0.1395914   0.1496730   0.0000000), wk =   0.0088889
        k(  222) = (   0.1395914   0.1726996   0.0000000), wk =   0.0088889
        k(  223) = (   0.1395914   0.1957262   0.0000000), wk =   0.0088889
        k(  224) = (   0.1395914   0.2187528   0.0000000), wk =   0.0088889
        k(  225) = (   0.1395914   0.2417794   0.0000000), wk =   0.0088889

                       cryst. coord.
        k(    1) = (  -0.4666667  -0.4666667   0.0000000), wk =   0.0088889
        k(    2) = (  -0.4666667  -0.4000000   0.0000000), wk =   0.0088889
        k(    3) = (  -0.4666667  -0.3333333   0.0000000), wk =   0.0088889
        k(    4) = (  -0.4666667  -0.2666667   0.0000000), wk =   0.0088889
        k(    5) = (  -0.4666667  -0.2000000   0.0000000), wk =   0.0088889
        k(    6) = (  -0.4666667  -0.1333333   0.0000000), wk =   0.0088889
        k(    7) = (  -0.4666667  -0.0666667   0.0000000), wk =   0.0088889
        k(    8) = (  -0.4666667   0.0000000   0.0000000), wk =   0.0088889
        k(    9) = (  -0.4666667   0.0666667   0.0000000), wk =   0.0088889
        k(   10) = (  -0.4666667   0.1333333   0.0000000), wk =   0.0088889
        k(   11) = (  -0.4666667   0.2000000   0.0000000), wk =   0.0088889
        k(   12) = (  -0.4666667   0.2666667   0.0000000), wk =   0.0088889
        k(   13) = (  -0.4666667   0.3333333   0.0000000), wk =   0.0088889
        k(   14) = (  -0.4666667   0.4000000   0.0000000), wk =   0.0088889
        k(   15) = (  -0.4666667   0.4666667   0.0000000), wk =   0.0088889
        k(   16) = (  -0.4000000  -0.4666667   0.0000000), wk =   0.0088889
        k(   17) = (  -0.4000000  -0.4000000   0.0000000), wk =   0.0088889
        k(   18) = (  -0.4000000  -0.3333333   0.0000000), wk =   0.0088889
        k(   19) = (  -0.4000000  -0.2666667   0.0000000), wk =   0.0088889
        k(   20) = (  -0.4000000  -0.2000000   0.0000000), wk =   0.0088889
        k(   21) = (  -0.4000000  -0.1333333   0.0000000), wk =   0.0088889
        k(   22) = (  -0.4000000  -0.0666667   0.0000000), wk =   0.0088889
        k(   23) = (  -0.4000000   0.0000000   0.0000000), wk =   0.0088889
        k(   24) = (  -0.4000000   0.0666667   0.0000000), wk =   0.0088889
        k(   25) = (  -0.4000000   0.1333333   0.0000000), wk =   0.0088889
        k(   26) = (  -0.4000000   0.2000000   0.0000000), wk =   0.0088889
        k(   27) = (  -0.4000000   0.2666667   0.0000000), wk =   0.0088889
        k(   28) = (  -0.4000000   0.3333333   0.0000000), wk =   0.0088889
        k(   29) = (  -0.4000000   0.4000000   0.0000000), wk =   0.0088889
        k(   30) = (  -0.4000000   0.4666667   0.0000000), wk =   0.0088889
        k(   31) = (  -0.3333333  -0.4666667   0.0000000), wk =   0.0088889
        k(   32) = (  -0.3333333  -0.4000000   0.0000000), wk =   0.0088889
        k(   33) = (  -0.3333333  -0.3333333   0.0000000), wk =   0.0088889
        k(   34) = (  -0.3333333  -0.2666667   0.0000000), wk =   0.0088889
        k(   35) = (  -0.3333333  -0.2000000   0.0000000), wk =   0.0088889
        k(   36) = (  -0.3333333  -0.1333333   0.0000000), wk =   0.0088889
        k(   37) = (  -0.3333333  -0.0666667   0.0000000), wk =   0.0088889
        k(   38) = (  -0.3333333   0.0000000   0.0000000), wk =   0.0088889
        k(   39) = (  -0.3333333   0.0666667   0.0000000), wk =   0.0088889
        k(   40) = (  -0.3333333   0.1333333   0.0000000), wk =   0.0088889
        k(   41) = (  -0.3333333   0.2000000   0.0000000), wk =   0.0088889
        k(   42) = (  -0.3333333   0.2666667   0.0000000), wk =   0.0088889
        k(   43) = (  -0.3333333   0.3333333   0.0000000), wk =   0.0088889
        k(   44) = (  -0.3333333   0.4000000   0.0000000), wk =   0.0088889
        k(   45) = (  -0.3333333   0.4666667   0.0000000), wk =   0.0088889
        k(   46) = (  -0.2666667  -0.4666667   0.0000000), wk =   0.0088889
        k(   47) = (  -0.2666667  -0.4000000   0.0000000), wk =   0.0088889
        k(   48) = (  -0.2666667  -0.3333333   0.0000000), wk =   0.0088889
        k(   49) = (  -0.2666667  -0.2666667   0.0000000), wk =   0.0088889
        k(   50) = (  -0.2666667  -0.2000000   0.0000000), wk =   0.0088889
        k(   51) = (  -0.2666667  -0.1333333   0.0000000), wk =   0.0088889
        k(   52) = (  -0.2666667  -0.0666667   0.0000000), wk =   0.0088889
        k(   53) = (  -0.2666667   0.0000000   0.0000000), wk =   0.0088889
        k(   54) = (  -0.2666667   0.0666667   0.0000000), wk =   0.0088889
        k(   55) = (  -0.2666667   0.1333333   0.0000000), wk =   0.0088889
        k(   56) = (  -0.2666667   0.2000000   0.0000000), wk =   0.0088889
        k(   57) = (  -0.2666667   0.2666667   0.0000000), wk =   0.0088889
        k(   58) = (  -0.2666667   0.3333333   0.0000000), wk =   0.0088889
        k(   59) = (  -0.2666667   0.4000000   0.0000000), wk =   0.0088889
        k(   60) = (  -0.2666667   0.4666667   0.0000000), wk =   0.0088889
        k(   61) = (  -0.2000000  -0.4666667   0.0000000), wk =   0.0088889
        k(   62) = (  -0.2000000  -0.4000000   0.0000000), wk =   0.0088889
        k(   63) = (  -0.2000000  -0.3333333   0.0000000), wk =   0.0088889
        k(   64) = (  -0.2000000  -0.2666667   0.0000000), wk =   0.0088889
        k(   65) = (  -0.2000000  -0.2000000   0.0000000), wk =   0.0088889
        k(   66) = (  -0.2000000  -0.1333333   0.0000000), wk =   0.0088889
        k(   67) = (  -0.2000000  -0.0666667   0.0000000), wk =   0.0088889
        k(   68) = (  -0.2000000   0.0000000   0.0000000), wk =   0.0088889
        k(   69) = (  -0.2000000   0.0666667   0.0000000), wk =   0.0088889
        k(   70) = (  -0.2000000   0.1333333   0.0000000), wk =   0.0088889
        k(   71) = (  -0.2000000   0.2000000   0.0000000), wk =   0.0088889
        k(   72) = (  -0.2000000   0.2666667   0.0000000), wk =   0.0088889
        k(   73) = (  -0.2000000   0.3333333   0.0000000), wk =   0.0088889
        k(   74) = (  -0.2000000   0.4000000   0.0000000), wk =   0.0088889
        k(   75) = (  -0.2000000   0.4666667   0.0000000), wk =   0.0088889
        k(   76) = (  -0.1333333  -0.4666667   0.0000000), wk =   0.0088889
        k(   77) = (  -0.1333333  -0.4000000   0.0000000), wk =   0.0088889
        k(   78) = (  -0.1333333  -0.3333333   0.0000000), wk =   0.0088889
        k(   79) = (  -0.1333333  -0.2666667   0.0000000), wk =   0.0088889
        k(   80) = (  -0.1333333  -0.2000000   0.0000000), wk =   0.0088889
        k(   81) = (  -0.1333333  -0.1333333   0.0000000), wk =   0.0088889
        k(   82) = (  -0.1333333  -0.0666667   0.0000000), wk =   0.0088889
        k(   83) = (  -0.1333333   0.0000000   0.0000000), wk =   0.0088889
        k(   84) = (  -0.1333333   0.0666667   0.0000000), wk =   0.0088889
        k(   85) = (  -0.1333333   0.1333333   0.0000000), wk =   0.0088889
        k(   86) = (  -0.1333333   0.2000000   0.0000000), wk =   0.0088889
        k(   87) = (  -0.1333333   0.2666667   0.0000000), wk =   0.0088889
        k(   88) = (  -0.1333333   0.3333333   0.0000000), wk =   0.0088889
        k(   89) = (  -0.1333333   0.4000000   0.0000000), wk =   0.0088889
        k(   90) = (  -0.1333333   0.4666667   0.0000000), wk =   0.0088889
        k(   91) = (  -0.0666667  -0.4666667   0.0000000), wk =   0.0088889
        k(   92) = (  -0.0666667  -0.4000000   0.0000000), wk =   0.0088889
        k(   93) = (  -0.0666667  -0.3333333   0.0000000), wk =   0.0088889
        k(   94) = (  -0.0666667  -0.2666667   0.0000000), wk =   0.0088889
        k(   95) = (  -0.0666667  -0.2000000   0.0000000), wk =   0.0088889
        k(   96) = (  -0.0666667  -0.1333333   0.0000000), wk =   0.0088889
        k(   97) = (  -0.0666667  -0.0666667   0.0000000), wk =   0.0088889
        k(   98) = (  -0.0666667   0.0000000   0.0000000), wk =   0.0088889
        k(   99) = (  -0.0666667   0.0666667   0.0000000), wk =   0.0088889
        k(  100) = (  -0.0666667   0.1333333   0.0000000), wk =   0.0088889
        k(  101) = (  -0.0666667   0.2000000   0.0000000), wk =   0.0088889
        k(  102) = (  -0.0666667   0.2666667   0.0000000), wk =   0.0088889
        k(  103) = (  -0.0666667   0.3333333   0.0000000), wk =   0.0088889
        k(  104) = (  -0.0666667   0.4000000   0.0000000), wk =   0.0088889
        k(  105) = (  -0.0666667   0.4666667   0.0000000), wk =   0.0088889
        k(  106) = (   0.0000000  -0.4666667   0.0000000), wk =   0.0088889
        k(  107) = (   0.0000000  -0.4000000   0.0000000), wk =   0.0088889
        k(  108) = (   0.0000000  -0.3333333   0.0000000), wk =   0.0088889
        k(  109) = (   0.0000000  -0.2666667   0.0000000), wk =   0.0088889
        k(  110) = (   0.0000000  -0.2000000   0.0000000), wk =   0.0088889
        k(  111) = (   0.0000000  -0.1333333   0.0000000), wk =   0.0088889
        k(  112) = (   0.0000000  -0.0666667   0.0000000), wk =   0.0088889
        k(  113) = (   0.0000000   0.0000000   0.0000000), wk =   0.0088889
        k(  114) = (   0.0000000   0.0666667   0.0000000), wk =   0.0088889
        k(  115) = (   0.0000000   0.1333333   0.0000000), wk =   0.0088889
        k(  116) = (   0.0000000   0.2000000   0.0000000), wk =   0.0088889
        k(  117) = (   0.0000000   0.2666667   0.0000000), wk =   0.0088889
        k(  118) = (   0.0000000   0.3333333   0.0000000), wk =   0.0088889
        k(  119) = (   0.0000000   0.4000000   0.0000000), wk =   0.0088889
        k(  120) = (   0.0000000   0.4666667   0.0000000), wk =   0.0088889
        k(  121) = (   0.0666667  -0.4666667   0.0000000), wk =   0.0088889
        k(  122) = (   0.0666667  -0.4000000   0.0000000), wk =   0.0088889
        k(  123) = (   0.0666667  -0.3333333   0.0000000), wk =   0.0088889
        k(  124) = (   0.0666667  -0.2666667   0.0000000), wk =   0.0088889
        k(  125) = (   0.0666667  -0.2000000   0.0000000), wk =   0.0088889
        k(  126) = (   0.0666667  -0.1333333   0.0000000), wk =   0.0088889
        k(  127) = (   0.0666667  -0.0666667   0.0000000), wk =   0.0088889
        k(  128) = (   0.0666667  -0.0000000   0.0000000), wk =   0.0088889
        k(  129) = (   0.0666667   0.0666667   0.0000000), wk =   0.0088889
        k(  130) = (   0.0666667   0.1333333   0.0000000), wk =   0.0088889
        k(  131) = (   0.0666667   0.2000000   0.0000000), wk =   0.0088889
        k(  132) = (   0.0666667   0.2666667   0.0000000), wk =   0.0088889
        k(  133) = (   0.0666667   0.3333333   0.0000000), wk =   0.0088889
        k(  134) = (   0.0666667   0.4000000   0.0000000), wk =   0.0088889
        k(  135) = (   0.0666667   0.4666667   0.0000000), wk =   0.0088889
        k(  136) = (   0.1333333  -0.4666667   0.0000000), wk =   0.0088889
        k(  137) = (   0.1333333  -0.4000000   0.0000000), wk =   0.0088889
        k(  138) = (   0.1333333  -0.3333333   0.0000000), wk =   0.0088889
        k(  139) = (   0.1333333  -0.2666667   0.0000000), wk =   0.0088889
        k(  140) = (   0.1333333  -0.2000000   0.0000000), wk =   0.0088889
        k(  141) = (   0.1333333  -0.1333333   0.0000000), wk =   0.0088889
        k(  142) = (   0.1333333  -0.0666667   0.0000000), wk =   0.0088889
        k(  143) = (   0.1333333  -0.0000000   0.0000000), wk =   0.0088889
        k(  144) = (   0.1333333   0.0666667   0.0000000), wk =   0.0088889
        k(  145) = (   0.1333333   0.1333333   0.0000000), wk =   0.0088889
        k(  146) = (   0.1333333   0.2000000   0.0000000), wk =   0.0088889
        k(  147) = (   0.1333333   0.2666667   0.0000000), wk =   0.0088889
        k(  148) = (   0.1333333   0.3333333   0.0000000), wk =   0.0088889
        k(  149) = (   0.1333333   0.4000000   0.0000000), wk =   0.0088889
        k(  150) = (   0.1333333   0.4666667   0.0000000), wk =   0.0088889
        k(  151) = (   0.2000000  -0.4666667   0.0000000), wk =   0.0088889
        k(  152) = (   0.2000000  -0.4000000   0.0000000), wk =   0.0088889
        k(  153) = (   0.2000000  -0.3333333   0.0000000), wk =   0.0088889
        k(  154) = (   0.2000000  -0.2666667   0.0000000), wk =   0.0088889
        k(  155) = (   0.2000000  -0.2000000   0.0000000), wk =   0.0088889
        k(  156) = (   0.2000000  -0.1333333   0.0000000), wk =   0.0088889
        k(  157) = (   0.2000000  -0.0666667   0.0000000), wk =   0.0088889
        k(  158) = (   0.2000000  -0.0000000   0.0000000), wk =   0.0088889
        k(  159) = (   0.2000000   0.0666667   0.0000000), wk =   0.0088889
        k(  160) = (   0.2000000   0.1333333   0.0000000), wk =   0.0088889
        k(  161) = (   0.2000000   0.2000000   0.0000000), wk =   0.0088889
        k(  162) = (   0.2000000   0.2666667   0.0000000), wk =   0.0088889
        k(  163) = (   0.2000000   0.3333333   0.0000000), wk =   0.0088889
        k(  164) = (   0.2000000   0.4000000   0.0000000), wk =   0.0088889
        k(  165) = (   0.2000000   0.4666667   0.0000000), wk =   0.0088889
        k(  166) = (   0.2666667  -0.4666667   0.0000000), wk =   0.0088889
        k(  167) = (   0.2666667  -0.4000000   0.0000000), wk =   0.0088889
        k(  168) = (   0.2666667  -0.3333333   0.0000000), wk =   0.0088889
        k(  169) = (   0.2666667  -0.2666667   0.0000000), wk =   0.0088889
        k(  170) = (   0.2666667  -0.2000000   0.0000000), wk =   0.0088889
        k(  171) = (   0.2666667  -0.1333333   0.0000000), wk =   0.0088889
        k(  172) = (   0.2666667  -0.0666667   0.0000000), wk =   0.0088889
        k(  173) = (   0.2666667  -0.0000000   0.0000000), wk =   0.0088889
        k(  174) = (   0.2666667   0.0666667   0.0000000), wk =   0.0088889
        k(  175) = (   0.2666667   0.1333333   0.0000000), wk =   0.0088889
        k(  176) = (   0.2666667   0.2000000   0.0000000), wk =   0.0088889
        k(  177) = (   0.2666667   0.2666667   0.0000000), wk =   0.0088889
        k(  178) = (   0.2666667   0.3333333   0.0000000), wk =   0.0088889
        k(  179) = (   0.2666667   0.4000000   0.0000000), wk =   0.0088889
        k(  180) = (   0.2666667   0.4666667   0.0000000), wk =   0.0088889
        k(  181) = (   0.3333333  -0.4666667   0.0000000), wk =   0.0088889
        k(  182) = (   0.3333333  -0.4000000   0.0000000), wk =   0.0088889
        k(  183) = (   0.3333333  -0.3333333   0.0000000), wk =   0.0088889
        k(  184) = (   0.3333333  -0.2666667   0.0000000), wk =   0.0088889
        k(  185) = (   0.3333333  -0.2000000   0.0000000), wk =   0.0088889
        k(  186) = (   0.3333333  -0.1333333   0.0000000), wk =   0.0088889
        k(  187) = (   0.3333333  -0.0666667   0.0000000), wk =   0.0088889
        k(  188) = (   0.3333333  -0.0000000   0.0000000), wk =   0.0088889
        k(  189) = (   0.3333333   0.0666667   0.0000000), wk =   0.0088889
        k(  190) = (   0.3333333   0.1333333   0.0000000), wk =   0.0088889
        k(  191) = (   0.3333333   0.2000000   0.0000000), wk =   0.0088889
        k(  192) = (   0.3333333   0.2666667   0.0000000), wk =   0.0088889
        k(  193) = (   0.3333333   0.3333333   0.0000000), wk =   0.0088889
        k(  194) = (   0.3333333   0.4000000   0.0000000), wk =   0.0088889
        k(  195) = (   0.3333333   0.4666667   0.0000000), wk =   0.0088889
        k(  196) = (   0.4000000  -0.4666667   0.0000000), wk =   0.0088889
        k(  197) = (   0.4000000  -0.4000000   0.0000000), wk =   0.0088889
        k(  198) = (   0.4000000  -0.3333333   0.0000000), wk =   0.0088889
        k(  199) = (   0.4000000  -0.2666667   0.0000000), wk =   0.0088889
        k(  200) = (   0.4000000  -0.2000000   0.0000000), wk =   0.0088889
        k(  201) = (   0.4000000  -0.1333333   0.0000000), wk =   0.0088889
        k(  202) = (   0.4000000  -0.0666667   0.0000000), wk =   0.0088889
        k(  203) = (   0.4000000  -0.0000000   0.0000000), wk =   0.0088889
        k(  204) = (   0.4000000   0.0666667   0.0000000), wk =   0.0088889
        k(  205) = (   0.4000000   0.1333333   0.0000000), wk =   0.0088889
        k(  206) = (   0.4000000   0.2000000   0.0000000), wk =   0.0088889
        k(  207) = (   0.4000000   0.2666667   0.0000000), wk =   0.0088889
        k(  208) = (   0.4000000   0.3333333   0.0000000), wk =   0.0088889
        k(  209) = (   0.4000000   0.4000000   0.0000000), wk =   0.0088889
        k(  210) = (   0.4000000   0.4666667   0.0000000), wk =   0.0088889
        k(  211) = (   0.4666667  -0.4666667   0.0000000), wk =   0.0088889
        k(  212) = (   0.4666667  -0.4000000   0.0000000), wk =   0.0088889
        k(  213) = (   0.4666667  -0.3333333   0.0000000), wk =   0.0088889
        k(  214) = (   0.4666667  -0.2666667   0.0000000), wk =   0.0088889
        k(  215) = (   0.4666667  -0.2000000   0.0000000), wk =   0.0088889
        k(  216) = (   0.4666667  -0.1333333   0.0000000), wk =   0.0088889
        k(  217) = (   0.4666667  -0.0666667   0.0000000), wk =   0.0088889
        k(  218) = (   0.4666667  -0.0000000   0.0000000), wk =   0.0088889
        k(  219) = (   0.4666667   0.0666667   0.0000000), wk =   0.0088889
        k(  220) = (   0.4666667   0.1333333   0.0000000), wk =   0.0088889
        k(  221) = (   0.4666667   0.2000000   0.0000000), wk =   0.0088889
        k(  222) = (   0.4666667   0.2666667   0.0000000), wk =   0.0088889
        k(  223) = (   0.4666667   0.3333333   0.0000000), wk =   0.0088889
        k(  224) = (   0.4666667   0.4000000   0.0000000), wk =   0.0088889
        k(  225) = (   0.4666667   0.4666667   0.0000000), wk =   0.0088889

     Dense  grid:   119551 G-vectors     FFT dimensions: (  30,  30, 360)

     Dynamical RAM for                 wfc:       0.29 MB

     Dynamical RAM for     wfc (w. buffer):       0.29 MB

     Dynamical RAM for           str. fact:       0.17 MB

     Dynamical RAM for           local pot:       0.00 MB

     Dynamical RAM for          nlocal pot:       0.66 MB

     Dynamical RAM for                qrad:      10.91 MB

     Dynamical RAM for          rho,v,vnew:       0.32 MB

     Dynamical RAM for           G-vectors:       0.18 MB

     Dynamical RAM for          h,s,v(r/c):       0.51 MB

     Dynamical RAM for          <psi|beta>:       0.10 MB

     Dynamical RAM for                 psi:       0.57 MB

     Dynamical RAM for                hpsi:       0.57 MB

     Dynamical RAM for      wfcinit/wfcrot:       0.64 MB

     Estimated static dynamical RAM per process >      13.05 MB

     Estimated max dynamical RAM per process >      14.81 MB

     Estimated total dynamical RAM >     622.11 MB

     Atomic positions and unit cell read from directory:
     ./calc.save/


     The potential is recalculated from file :
     ./calc.save/charge-density

     Starting wfcs are random

     Band Structure Calculation
     Davidson diagonalization with overlap

     Computing kpt #:     1  of   225
     total cpu time spent up to now is        2.8 secs

     Computing kpt #:     2  of   225
     total cpu time spent up to now is        4.5 secs

     Computing kpt #:     3  of   225
     total cpu time spent up to now is        6.5 secs

     Computing kpt #:     4  of   225
     total cpu time spent up to now is        8.5 secs

     Computing kpt #:     5  of   225
     total cpu time spent up to now is       10.2 secs

     Computing kpt #:     6  of   225
     total cpu time spent up to now is       12.0 secs

     Computing kpt #:     7  of   225
     total cpu time spent up to now is       13.8 secs

     Computing kpt #:     8  of   225
     total cpu time spent up to now is       15.7 secs

     Computing kpt #:     9  of   225
     total cpu time spent up to now is       17.7 secs

     Computing kpt #:    10  of   225
     total cpu time spent up to now is       19.5 secs

     Computing kpt #:    11  of   225
     total cpu time spent up to now is       21.8 secs

     Computing kpt #:    12  of   225
     total cpu time spent up to now is       23.9 secs

     Computing kpt #:    13  of   225
     total cpu time spent up to now is       25.6 secs

     Computing kpt #:    14  of   225
     total cpu time spent up to now is       27.5 secs

     Computing kpt #:    15  of   225
     total cpu time spent up to now is       29.5 secs

     Computing kpt #:    16  of   225
     total cpu time spent up to now is       31.2 secs

     Computing kpt #:    17  of   225
     total cpu time spent up to now is       33.1 secs

     Computing kpt #:    18  of   225
     total cpu time spent up to now is       35.3 secs

     Computing kpt #:    19  of   225
     total cpu time spent up to now is       37.2 secs

     Computing kpt #:    20  of   225
     total cpu time spent up to now is       39.0 secs

     Computing kpt #:    21  of   225
     total cpu time spent up to now is       40.8 secs

     Computing kpt #:    22  of   225
     total cpu time spent up to now is       42.7 secs

     Computing kpt #:    23  of   225
     total cpu time spent up to now is       44.8 secs

     Computing kpt #:    24  of   225
     total cpu time spent up to now is       47.0 secs

     Computing kpt #:    25  of   225
     total cpu time spent up to now is       49.2 secs

     Computing kpt #:    26  of   225
     total cpu time spent up to now is       51.5 secs

     Computing kpt #:    27  of   225
     total cpu time spent up to now is       53.5 secs

     Computing kpt #:    28  of   225
     total cpu time spent up to now is       55.8 secs

     Computing kpt #:    29  of   225
     total cpu time spent up to now is       57.8 secs

     Computing kpt #:    30  of   225
     total cpu time spent up to now is       59.7 secs

     Computing kpt #:    31  of   225
     total cpu time spent up to now is       61.7 secs

     Computing kpt #:    32  of   225
     total cpu time spent up to now is       63.8 secs

     Computing kpt #:    33  of   225
     total cpu time spent up to now is       65.7 secs

     Computing kpt #:    34  of   225
     total cpu time spent up to now is       67.8 secs

     Computing kpt #:    35  of   225
     total cpu time spent up to now is       69.6 secs

     Computing kpt #:    36  of   225
     total cpu time spent up to now is       71.6 secs

     Computing kpt #:    37  of   225
     total cpu time spent up to now is       73.8 secs

     Computing kpt #:    38  of   225
     total cpu time spent up to now is       75.8 secs

     Computing kpt #:    39  of   225
     total cpu time spent up to now is       78.0 secs

     Computing kpt #:    40  of   225
     total cpu time spent up to now is       80.0 secs

     Computing kpt #:    41  of   225
     total cpu time spent up to now is       81.9 secs

     Computing kpt #:    42  of   225
     total cpu time spent up to now is       84.2 secs

     Computing kpt #:    43  of   225
     total cpu time spent up to now is       86.4 secs

     Computing kpt #:    44  of   225
     total cpu time spent up to now is       88.5 secs

     Computing kpt #:    45  of   225
     total cpu time spent up to now is       90.4 secs

     Computing kpt #:    46  of   225
     total cpu time spent up to now is       92.6 secs

     Computing kpt #:    47  of   225
     total cpu time spent up to now is       94.7 secs

     Computing kpt #:    48  of   225
     total cpu time spent up to now is       96.8 secs

     Computing kpt #:    49  of   225
     total cpu time spent up to now is       98.9 secs

     Computing kpt #:    50  of   225
     total cpu time spent up to now is      100.8 secs

     Computing kpt #:    51  of   225
     total cpu time spent up to now is      102.8 secs

     Computing kpt #:    52  of   225
     total cpu time spent up to now is      105.0 secs

     Computing kpt #:    53  of   225
     total cpu time spent up to now is      106.9 secs

     Computing kpt #:    54  of   225
     total cpu time spent up to now is      108.8 secs

     Computing kpt #:    55  of   225
     total cpu time spent up to now is      110.7 secs

     Computing kpt #:    56  of   225
     total cpu time spent up to now is      112.5 secs

     Computing kpt #:    57  of   225
     total cpu time spent up to now is      114.5 secs

     Computing kpt #:    58  of   225
     total cpu time spent up to now is      116.5 secs

     Computing kpt #:    59  of   225
     total cpu time spent up to now is      118.5 secs

     Computing kpt #:    60  of   225
     total cpu time spent up to now is      120.7 secs

     Computing kpt #:    61  of   225
     total cpu time spent up to now is      122.6 secs

     Computing kpt #:    62  of   225
     total cpu time spent up to now is      124.3 secs

     Computing kpt #:    63  of   225
     total cpu time spent up to now is      126.1 secs

     Computing kpt #:    64  of   225
     total cpu time spent up to now is      128.0 secs

     Computing kpt #:    65  of   225
     total cpu time spent up to now is      130.0 secs

     Computing kpt #:    66  of   225
     total cpu time spent up to now is      131.8 secs

     Computing kpt #:    67  of   225
     total cpu time spent up to now is      133.8 secs

     Computing kpt #:    68  of   225
     total cpu time spent up to now is      135.8 secs

     Computing kpt #:    69  of   225
     total cpu time spent up to now is      137.7 secs

     Computing kpt #:    70  of   225
     total cpu time spent up to now is      139.7 secs

     Computing kpt #:    71  of   225
     total cpu time spent up to now is      141.6 secs

     Computing kpt #:    72  of   225
     total cpu time spent up to now is      143.5 secs

     Computing kpt #:    73  of   225
     total cpu time spent up to now is      145.4 secs

     Computing kpt #:    74  of   225
     total cpu time spent up to now is      147.7 secs

     Computing kpt #:    75  of   225
     total cpu time spent up to now is      149.7 secs

     Computing kpt #:    76  of   225
     total cpu time spent up to now is      151.4 secs

     Computing kpt #:    77  of   225
     total cpu time spent up to now is      153.0 secs

     Computing kpt #:    78  of   225
     total cpu time spent up to now is      154.9 secs

     Computing kpt #:    79  of   225
     total cpu time spent up to now is      157.2 secs

     Computing kpt #:    80  of   225
     total cpu time spent up to now is      159.0 secs

     Computing kpt #:    81  of   225
     total cpu time spent up to now is      160.9 secs

     Computing kpt #:    82  of   225
     total cpu time spent up to now is      162.9 secs

     Computing kpt #:    83  of   225
     total cpu time spent up to now is      164.8 secs

     Computing kpt #:    84  of   225
     total cpu time spent up to now is      166.7 secs

     Computing kpt #:    85  of   225
     total cpu time spent up to now is      168.7 secs

     Computing kpt #:    86  of   225
     total cpu time spent up to now is      170.7 secs

     Computing kpt #:    87  of   225
     total cpu time spent up to now is      172.7 secs

     Computing kpt #:    88  of   225
     total cpu time spent up to now is      174.7 secs

     Computing kpt #:    89  of   225
     total cpu time spent up to now is      177.0 secs

     Computing kpt #:    90  of   225
     total cpu time spent up to now is      178.9 secs

     Computing kpt #:    91  of   225
     total cpu time spent up to now is      180.8 secs

     Computing kpt #:    92  of   225
     total cpu time spent up to now is      182.5 secs

     Computing kpt #:    93  of   225
     total cpu time spent up to now is      184.8 secs

     Computing kpt #:    94  of   225
     total cpu time spent up to now is      187.0 secs

     Computing kpt #:    95  of   225
     total cpu time spent up to now is      188.9 secs

     Computing kpt #:    96  of   225
     total cpu time spent up to now is      190.8 secs

     Computing kpt #:    97  of   225
     total cpu time spent up to now is      192.8 secs

     Computing kpt #:    98  of   225
     total cpu time spent up to now is      194.7 secs

     Computing kpt #:    99  of   225
     total cpu time spent up to now is      196.7 secs

     Computing kpt #:   100  of   225
     total cpu time spent up to now is      198.7 secs

     Computing kpt #:   101  of   225
     total cpu time spent up to now is      200.6 secs

     Computing kpt #:   102  of   225
     total cpu time spent up to now is      202.6 secs

     Computing kpt #:   103  of   225
     total cpu time spent up to now is      204.6 secs

     Computing kpt #:   104  of   225
     total cpu time spent up to now is      206.8 secs

     Computing kpt #:   105  of   225
     total cpu time spent up to now is      208.7 secs

     Computing kpt #:   106  of   225
     total cpu time spent up to now is      210.6 secs

     Computing kpt #:   107  of   225
     total cpu time spent up to now is      212.5 secs

     Computing kpt #:   108  of   225
     total cpu time spent up to now is      214.7 secs

     Computing kpt #:   109  of   225
     total cpu time spent up to now is      216.6 secs

     Computing kpt #:   110  of   225
     total cpu time spent up to now is      218.5 secs

     Computing kpt #:   111  of   225
     total cpu time spent up to now is      220.5 secs

     Computing kpt #:   112  of   225
     total cpu time spent up to now is      222.5 secs

     Computing kpt #:   113  of   225
     total cpu time spent up to now is      224.5 secs

     Computing kpt #:   114  of   225
     total cpu time spent up to now is      226.5 secs

     Computing kpt #:   115  of   225
     total cpu time spent up to now is      228.4 secs

     Computing kpt #:   116  of   225
     total cpu time spent up to now is      230.3 secs

     Computing kpt #:   117  of   225
     total cpu time spent up to now is      232.3 secs

     Computing kpt #:   118  of   225
     total cpu time spent up to now is      234.3 secs

     Computing kpt #:   119  of   225
     total cpu time spent up to now is      236.4 secs

     Computing kpt #:   120  of   225
     total cpu time spent up to now is      238.5 secs

     Computing kpt #:   121  of   225
     total cpu time spent up to now is      240.3 secs

     Computing kpt #:   122  of   225
     total cpu time spent up to now is      242.5 secs

     Computing kpt #:   123  of   225
     total cpu time spent up to now is      244.5 secs

     Computing kpt #:   124  of   225
     total cpu time spent up to now is      246.5 secs

     Computing kpt #:   125  of   225
     total cpu time spent up to now is      248.4 secs

     Computing kpt #:   126  of   225
     total cpu time spent up to now is      250.4 secs

     Computing kpt #:   127  of   225
     total cpu time spent up to now is      252.5 secs

     Computing kpt #:   128  of   225
     total cpu time spent up to now is      254.4 secs

     Computing kpt #:   129  of   225
     total cpu time spent up to now is      256.4 secs

     Computing kpt #:   130  of   225
     total cpu time spent up to now is      258.3 secs

     Computing kpt #:   131  of   225
     total cpu time spent up to now is      260.2 secs

     Computing kpt #:   132  of   225
     total cpu time spent up to now is      262.5 secs

     Computing kpt #:   133  of   225
     total cpu time spent up to now is      264.6 secs

     Computing kpt #:   134  of   225
     total cpu time spent up to now is      266.5 secs

     Computing kpt #:   135  of   225
     total cpu time spent up to now is      268.4 secs

     Computing kpt #:   136  of   225
     total cpu time spent up to now is      270.3 secs

     Computing kpt #:   137  of   225
     total cpu time spent up to now is      272.3 secs

     Computing kpt #:   138  of   225
     total cpu time spent up to now is      274.3 secs

     Computing kpt #:   139  of   225
     total cpu time spent up to now is      276.2 secs

     Computing kpt #:   140  of   225
     total cpu time spent up to now is      278.2 secs

     Computing kpt #:   141  of   225
     total cpu time spent up to now is      280.1 secs

     Computing kpt #:   142  of   225
     total cpu time spent up to now is      282.2 secs

     Computing kpt #:   143  of   225
     total cpu time spent up to now is      284.1 secs

     Computing kpt #:   144  of   225
     total cpu time spent up to now is      286.0 secs

     Computing kpt #:   145  of   225
     total cpu time spent up to now is      288.0 secs

     Computing kpt #:   146  of   225
     total cpu time spent up to now is      289.9 secs

     Computing kpt #:   147  of   225
     total cpu time spent up to now is      291.9 secs

     Computing kpt #:   148  of   225
     total cpu time spent up to now is      293.9 secs

     Computing kpt #:   149  of   225
     total cpu time spent up to now is      295.7 secs

     Computing kpt #:   150  of   225
     total cpu time spent up to now is      297.5 secs

     Computing kpt #:   151  of   225
     total cpu time spent up to now is      299.7 secs

     Computing kpt #:   152  of   225
     total cpu time spent up to now is      302.0 secs

     Computing kpt #:   153  of   225
     total cpu time spent up to now is      304.0 secs

     Computing kpt #:   154  of   225
     total cpu time spent up to now is      305.9 secs

     Computing kpt #:   155  of   225
     total cpu time spent up to now is      307.8 secs

     Computing kpt #:   156  of   225
     total cpu time spent up to now is      309.9 secs

     Computing kpt #:   157  of   225
     total cpu time spent up to now is      311.9 secs

     Computing kpt #:   158  of   225
     total cpu time spent up to now is      313.8 secs

     Computing kpt #:   159  of   225
     total cpu time spent up to now is      315.8 secs

     Computing kpt #:   160  of   225
     total cpu time spent up to now is      317.6 secs

     Computing kpt #:   161  of   225
     total cpu time spent up to now is      319.7 secs

     Computing kpt #:   162  of   225
     total cpu time spent up to now is      321.6 secs

     Computing kpt #:   163  of   225
     total cpu time spent up to now is      323.4 secs

     Computing kpt #:   164  of   225
     total cpu time spent up to now is      325.3 secs

     Computing kpt #:   165  of   225
     total cpu time spent up to now is      327.2 secs

     Computing kpt #:   166  of   225
     total cpu time spent up to now is      329.4 secs

     Computing kpt #:   167  of   225
     total cpu time spent up to now is      331.5 secs

     Computing kpt #:   168  of   225
     total cpu time spent up to now is      333.8 secs

     Computing kpt #:   169  of   225
     total cpu time spent up to now is      335.7 secs

     Computing kpt #:   170  of   225
     total cpu time spent up to now is      337.8 secs

     Computing kpt #:   171  of   225
     total cpu time spent up to now is      339.7 secs

     Computing kpt #:   172  of   225
     total cpu time spent up to now is      341.7 secs

     Computing kpt #:   173  of   225
     total cpu time spent up to now is      343.6 secs

     Computing kpt #:   174  of   225
     total cpu time spent up to now is      345.9 secs

     Computing kpt #:   175  of   225
     total cpu time spent up to now is      347.8 secs

     Computing kpt #:   176  of   225
     total cpu time spent up to now is      350.0 secs

     Computing kpt #:   177  of   225
     total cpu time spent up to now is      351.9 secs

     Computing kpt #:   178  of   225
     total cpu time spent up to now is      354.0 secs

     Computing kpt #:   179  of   225
     total cpu time spent up to now is      356.1 secs

     Computing kpt #:   180  of   225
     total cpu time spent up to now is      358.4 secs

     Computing kpt #:   181  of   225
     total cpu time spent up to now is      360.3 secs

     Computing kpt #:   182  of   225
     total cpu time spent up to now is      362.7 secs

     Computing kpt #:   183  of   225
     total cpu time spent up to now is      364.7 secs

     Computing kpt #:   184  of   225
     total cpu time spent up to now is      366.7 secs

     Computing kpt #:   185  of   225
     total cpu time spent up to now is      368.6 secs

     Computing kpt #:   186  of   225
     total cpu time spent up to now is      370.5 secs

     Computing kpt #:   187  of   225
     total cpu time spent up to now is      372.8 secs

     Computing kpt #:   188  of   225
     total cpu time spent up to now is      375.2 secs

     Computing kpt #:   189  of   225
     total cpu time spent up to now is      377.6 secs

     Computing kpt #:   190  of   225
     total cpu time spent up to now is      379.5 secs

     Computing kpt #:   191  of   225
     total cpu time spent up to now is      381.5 secs

     Computing kpt #:   192  of   225
     total cpu time spent up to now is      383.7 secs

     Computing kpt #:   193  of   225
     total cpu time spent up to now is      385.6 secs

     Computing kpt #:   194  of   225
     total cpu time spent up to now is      387.8 secs

     Computing kpt #:   195  of   225
     total cpu time spent up to now is      389.8 secs

     Computing kpt #:   196  of   225
     total cpu time spent up to now is      391.6 secs

     Computing kpt #:   197  of   225
     total cpu time spent up to now is      393.7 secs

     Computing kpt #:   198  of   225
     total cpu time spent up to now is      396.0 secs

     Computing kpt #:   199  of   225
     total cpu time spent up to now is      398.1 secs

     Computing kpt #:   200  of   225
     total cpu time spent up to now is      400.3 secs

     Computing kpt #:   201  of   225
     total cpu time spent up to now is      402.4 secs

     Computing kpt #:   202  of   225
     total cpu time spent up to now is      404.4 secs

     Computing kpt #:   203  of   225
     total cpu time spent up to now is      406.4 secs

     Computing kpt #:   204  of   225
     total cpu time spent up to now is      408.2 secs

     Computing kpt #:   205  of   225
     total cpu time spent up to now is      409.9 secs

     Computing kpt #:   206  of   225
     total cpu time spent up to now is      411.8 secs

     Computing kpt #:   207  of   225
     total cpu time spent up to now is      413.9 secs

     Computing kpt #:   208  of   225
     total cpu time spent up to now is      416.0 secs

     Computing kpt #:   209  of   225
     total cpu time spent up to now is      417.9 secs

     Computing kpt #:   210  of   225
     total cpu time spent up to now is      419.6 secs

     Computing kpt #:   211  of   225
     total cpu time spent up to now is      421.4 secs

     Computing kpt #:   212  of   225
     total cpu time spent up to now is      423.3 secs

     Computing kpt #:   213  of   225
     total cpu time spent up to now is      425.3 secs

     Computing kpt #:   214  of   225
     total cpu time spent up to now is      427.4 secs

     Computing kpt #:   215  of   225
     total cpu time spent up to now is      429.6 secs

     Computing kpt #:   216  of   225
     total cpu time spent up to now is      431.5 secs

     Computing kpt #:   217  of   225
     total cpu time spent up to now is      433.4 secs

     Computing kpt #:   218  of   225
     total cpu time spent up to now is      435.4 secs

     Computing kpt #:   219  of   225
     total cpu time spent up to now is      437.1 secs

     Computing kpt #:   220  of   225
     total cpu time spent up to now is      438.9 secs

     Computing kpt #:   221  of   225
     total cpu time spent up to now is      440.8 secs

     Computing kpt #:   222  of   225
     total cpu time spent up to now is      443.0 secs

     Computing kpt #:   223  of   225
     total cpu time spent up to now is      444.9 secs

     Computing kpt #:   224  of   225
     total cpu time spent up to now is      446.7 secs

     Computing kpt #:   225  of   225
     total cpu time spent up to now is      448.4 secs

     ethr =  8.55E-11,  avg # of iterations = 50.9

     total cpu time spent up to now is      448.4 secs

     End of band structure calculation

          k =-0.1396-0.2418 0.0000 ( 14974 PWs)   bands (ev):

   -71.7289 -59.2519 -36.1812 -36.1675 -36.0605 -34.8490 -34.8244 -34.8107
   -34.7995 -34.7775 -34.7729 -34.7307 -34.7191 -34.7034 -34.6891 -33.4778
   -33.3482 -33.3168 -25.9412 -25.9371 -25.9245 -25.9218 -25.9152 -25.9126
   -25.9103 -10.8614 -10.6461  -9.2259  -8.9227  -4.7922  -3.9143  -3.6375
    -3.0783  -2.2508  -2.0221  -1.2137  -0.9052  -0.3437   0.0791   0.3658
     0.5133   1.1660   1.6520   3.4050   3.8452   4.1874   4.3998   5.0104
     5.2802   5.6965   6.0766   6.1905   7.0740

     occupation numbers 
     1.0000   1.0000   1.0000   1.0000   1.0000   1.0000   1.0000   1.0000
     1.0000   1.0000   1.0000   1.0000   1.0000   1.0000   1.0000   1.0000
     1.0000   1.0000   1.0000   1.0000   1.0000   1.0000   1.0000   1.0000
     1.0000   1.0000   1.0000   1.0000   1.0000   1.0000   1.0000   1.0000
     1.0000   1.0000   1.0000   1.0000   1.0000   1.0000   1.0000   1.0000
     1.0000   1.0000   1.0000   0.0000   0.0000   0.0000   0.0000   0.0000
     0.0000   0.0000   0.0000   0.0000   0.0000

          k =-0.1396-0.2188 0.0000 ( 14970 PWs)   bands (ev):

   -71.7287 -59.2515 -36.1822 -36.1617 -36.0701 -34.8444 -34.8253 -34.8084
   -34.8040 -34.7780 -34.7751 -34.7310 -34.7207 -34.7016 -34.6856 -33.4672
   -33.3473 -33.3329 -25.9410 -25.9374 -25.9243 -25.9220 -25.9151 -25.9129
   -25.9103 -10.8322 -10.6228  -9.1799  -8.8799  -4.5406  -3.7129  -3.5578
    -3.0931  -2.2045  -1.9627  -1.3240  -1.1961  -0.3851  -0.2786  -0.1734
     0.1089   1.2683   1.5634   3.3874   3.8790   4.1202   4.5804   4.7406
     5.1812   5.3259   6.1039   6.5723   7.3752

     occupation numbers 
     1.0000   1.0000   1.0000   1.0000   1.0000   1.0000   1.0000   1.0000
     1.0000   1.0000   1.0000   1.0000   1.0000   1.0000   1.0000   1.0000
     1.0000   1.0000   1.0000   1.0000   1.0000   1.0000   1.0000   1.0000
     1.0000   1.0000   1.0000   1.0000   1.0000   1.0000   1.0000   1.0000
     1.0000   1.0000   1.0000   1.0000   1.0000   1.0000   1.0000   1.0000
     1.0000   1.0000   1.0000   0.0000   0.0000   0.0000   0.0000   0.0000
     0.0000   0.0000   0.0000   0.0000   0.0000

          k =-0.1396-0.1957 0.0000 ( 14968 PWs)   bands (ev):

   -71.7286 -59.2513 -36.1827 -36.1527 -36.0816 -34.8380 -34.8262 -34.8104
   -34.8057 -34.7785 -34.7775 -34.7315 -34.7221 -34.7001 -34.6827 -33.4510
   -33.3530 -33.3467 -25.9406 -25.9377 -25.9240 -25.9221 -25.9150 -25.9132
   -25.9103 -10.8168 -10.6063  -9.1694  -8.8537  -4.1293  -3.4409  -3.3870
    -3.0901  -2.1459  -1.9147  -1.5315  -1.3747  -1.1324  -0.9508  -0.1927
     0.1444   1.2920   1.5414   3.3150   3.8125   4.0962   4.3646   4.5775
     4.7422   5.4883   6.6693   7.0211   7.8732

     occupation numbers 
     1.0000   1.0000   1.0000   1.0000   1.0000   1.0000   1.0000   1.0000
     1.0000   1.0000   1.0000   1.0000   1.0000   1.0000   1.0000   1.0000
     1.0000   1.0000   1.0000   1.0000   1.0000   1.0000   1.0000   1.0000
     1.0000   1.0000   1.0000   1.0000   1.0000   1.0000   1.0000   1.0000
     1.0000   1.0000   1.0000   1.0000   1.0000   1.0000   1.0000   1.0000
     1.0000   1.0000   1.0000   0.0000   0.0000   0.0000   0.0000   0.0000
     0.0000   0.0000   0.0000   0.0000   0.0000

          k =-0.1396-0.1727 0.0000 ( 14981 PWs)   bands (ev):

   -71.7286 -59.2512 -36.1829 -36.1477 -36.0874 -34.8341 -34.8267 -34.8143
   -34.8045 -34.7791 -34.7783 -34.7317 -34.7226 -34.6996 -34.6816 -33.4415
   -33.3638 -33.3465 -25.9404 -25.9379 -25.9239 -25.9222 -25.9150 -25.9133
   -25.9103 -10.8123 -10.6003  -9.1696  -8.8450  -3.8811  -3.3497  -3.2306
    -3.0816  -2.0897  -1.9490  -1.6127  -1.5148  -1.4059  -1.3187  -0.1634
     0.1661   1.2950   1.5402   3.2745   3.7470   4.1054   4.2794   4.3321
     4.7579   5.5845   6.9970   7.3063   8.0850

     occupation numbers 
     1.0000   1.0000   1.0000   1.0000   1.0000   1.0000   1.0000   1.0000
     1.0000   1.0000   1.0000   1.0000   1.0000   1.0000   1.0000   1.0000
     1.0000   1.0000   1.0000   1.0000   1.0000   1.0000   1.0000   1.0000
     1.0000   1.0000   1.0000   1.0000   1.0000   1.0000   1.0000   1.0000
     1.0000   1.0000   1.0000   1.0000   1.0000   1.0000   1.0000   1.0000
     1.0000   1.0000   1.0000   0.0000   0.0000   0.0000   0.0000   0.0000
     0.0000   0.0000   0.0000   0.0000   0.0000

          k =-0.1396-0.1497 0.0000 ( 14968 PWs)   bands (ev):

   -71.7286 -59.2513 -36.1827 -36.1527 -36.0816 -34.8380 -34.8262 -34.8104
   -34.8057 -34.7785 -34.7775 -34.7315 -34.7221 -34.7001 -34.6827 -33.4510
   -33.3530 -33.3467 -25.9406 -25.9377 -25.9240 -25.9221 -25.9150 -25.9132
   -25.9103 -10.8168 -10.6063  -9.1694  -8.8537  -4.1293  -3.4409  -3.3870
    -3.0901  -2.1459  -1.9147  -1.5315  -1.3747  -1.1324  -0.9508  -0.1927
     0.1444   1.2920   1.5414   3.3150   3.8125   4.0962   4.3646   4.5775
     4.7422   5.4883   6.6693   7.0211   7.8732

     occupation numbers 
     1.0000   1.0000   1.0000   1.0000   1.0000   1.0000   1.0000   1.0000
     1.0000   1.0000   1.0000   1.0000   1.0000   1.0000   1.0000   1.0000
     1.0000   1.0000   1.0000   1.0000   1.0000   1.0000   1.0000   1.0000
     1.0000   1.0000   1.0000   1.0000   1.0000   1.0000   1.0000   1.0000
     1.0000   1.0000   1.0000   1.0000   1.0000   1.0000   1.0000   1.0000
     1.0000   1.0000   1.0000   0.0000   0.0000   0.0000   0.0000   0.0000
     0.0000   0.0000   0.0000   0.0000   0.0000

          k =-0.1396-0.1266 0.0000 ( 14970 PWs)   bands (ev):

   -71.7287 -59.2515 -36.1822 -36.1617 -36.0701 -34.8444 -34.8253 -34.8084
   -34.8040 -34.7780 -34.7751 -34.7310 -34.7207 -34.7016 -34.6856 -33.4672
   -33.3473 -33.3329 -25.9410 -25.9374 -25.9243 -25.9220 -25.9151 -25.9129
   -25.9103 -10.8322 -10.6228  -9.1799  -8.8799  -4.5406  -3.7129  -3.5578
    -3.0931  -2.2045  -1.9627  -1.3240  -1.1961  -0.3851  -0.2786  -0.1734
     0.1089   1.2683   1.5634   3.3874   3.8790   4.1202   4.5804   4.7406
     5.1812   5.3259   6.1039   6.5723   7.3752

     occupation numbers 
     1.0000   1.0000   1.0000   1.0000   1.0000   1.0000   1.0000   1.0000
     1.0000   1.0000   1.0000   1.0000   1.0000   1.0000   1.0000   1.0000
     1.0000   1.0000   1.0000   1.0000   1.0000   1.0000   1.0000   1.0000
     1.0000   1.0000   1.0000   1.0000   1.0000   1.0000   1.0000   1.0000
     1.0000   1.0000   1.0000   1.0000   1.0000   1.0000   1.0000   1.0000
     1.0000   1.0000   1.0000   0.0000   0.0000   0.0000   0.0000   0.0000
     0.0000   0.0000   0.0000   0.0000   0.0000

          k =-0.1396-0.1036 0.0000 ( 14974 PWs)   bands (ev):

   -71.7289 -59.2519 -36.1812 -36.1675 -36.0605 -34.8490 -34.8244 -34.8107
   -34.7995 -34.7775 -34.7729 -34.7307 -34.7191 -34.7034 -34.6891 -33.4778
   -33.3482 -33.3168 -25.9412 -25.9371 -25.9245 -25.9218 -25.9152 -25.9126
   -25.9103 -10.8614 -10.6461  -9.2259  -8.9227  -4.7922  -3.9143  -3.6375
    -3.0783  -2.2508  -2.0221  -1.2137  -0.9052  -0.3437   0.0791   0.3658
     0.5133   1.1660   1.6520   3.4050   3.8452   4.1874   4.3998   5.0104
     5.2802   5.6965   6.0766   6.1905   7.0740

     occupation numbers 
     1.0000   1.0000   1.0000   1.0000   1.0000   1.0000   1.0000   1.0000
     1.0000   1.0000   1.0000   1.0000   1.0000   1.0000   1.0000   1.0000
     1.0000   1.0000   1.0000   1.0000   1.0000   1.0000   1.0000   1.0000
     1.0000   1.0000   1.0000   1.0000   1.0000   1.0000   1.0000   1.0000
     1.0000   1.0000   1.0000   1.0000   1.0000   1.0000   1.0000   1.0000
     1.0000   1.0000   1.0000   0.0000   0.0000   0.0000   0.0000   0.0000
     0.0000   0.0000   0.0000   0.0000   0.0000

          k =-0.1396-0.0806 0.0000 ( 14970 PWs)   bands (ev):

   -71.7290 -59.2523 -36.1799 -36.1672 -36.0561 -34.8501 -34.8241 -34.8120
   -34.7983 -34.7770 -34.7721 -34.7310 -34.7188 -34.7045 -34.6919 -33.4785
   -33.3492 -33.3103 -25.9413 -25.9371 -25.9245 -25.9218 -25.9153 -25.9124
   -25.9104 -10.9042 -10.6717  -9.3199  -8.9773  -4.7813  -3.9398  -3.6002
    -3.0343  -2.2743  -2.0459  -1.1501  -0.7415  -0.3872   0.0809   0.7244
     0.8290   0.9123   1.7342   3.3924   3.8044   4.2091   4.2199   4.9795
     5.4794   5.6713   6.0062   6.7578   7.0637

     occupation numbers 
     1.0000   1.0000   1.0000   1.0000   1.0000   1.0000   1.0000   1.0000
     1.0000   1.0000   1.0000   1.0000   1.0000   1.0000   1.0000   1.0000
     1.0000   1.0000   1.0000   1.0000   1.0000   1.0000   1.0000   1.0000
     1.0000   1.0000   1.0000   1.0000   1.0000   1.0000   1.0000   1.0000
     1.0000   1.0000   1.0000   1.0000   1.0000   1.0000   1.0000   1.0000
     1.0000   1.0000   1.0000   0.0000   0.0000   0.0000   0.0000   0.0000
     0.0000   0.0000   0.0000   0.0000   0.0000

          k =-0.1396-0.0576 0.0000 ( 14952 PWs)   bands (ev):

   -71.7292 -59.2527 -36.1786 -36.1605 -36.0580 -34.8476 -34.8247 -34.8119
   -34.8007 -34.7766 -34.7729 -34.7317 -34.7203 -34.7041 -34.6933 -33.4689
   -33.3501 -33.3144 -25.9412 -25.9372 -25.9243 -25.9217 -25.9155 -25.9123
   -25.9104 -10.9537 -10.6948  -9.4428  -9.0341  -4.5172  -3.7871  -3.4404
    -2.9560  -2.2634  -2.0187  -1.1875  -0.8780  -0.2823   0.1315   0.3146
     0.4128   1.0791   1.6145   3.4063   3.7428   4.0490   4.3520   4.9114
     5.3149   5.8394   6.1823   6.3394   7.4085

     occupation numbers 
     1.0000   1.0000   1.0000   1.0000   1.0000   1.0000   1.0000   1.0000
     1.0000   1.0000   1.0000   1.0000   1.0000   1.0000   1.0000   1.0000
     1.0000   1.0000   1.0000   1.0000   1.0000   1.0000   1.0000   1.0000
     1.0000   1.0000   1.0000   1.0000   1.0000   1.0000   1.0000   1.0000
     1.0000   1.0000   1.0000   1.0000   1.0000   1.0000   1.0000   1.0000
     1.0000   1.0000   1.0000   0.0000   0.0000   0.0000   0.0000   0.0000
     0.0000   0.0000   0.0000   0.0000   0.0000

          k =-0.1396-0.0345 0.0000 ( 14957 PWs)   bands (ev):

   -71.7293 -59.2530 -36.1775 -36.1499 -36.0646 -34.8421 -34.8261 -34.8104
   -34.8060 -34.7763 -34.7749 -34.7326 -34.7226 -34.7030 -34.6935 -33.4525
   -33.3509 -33.3267 -25.9409 -25.9375 -25.9241 -25.9217 -25.9156 -25.9124
   -25.9105 -10.9975 -10.7120  -9.5546  -9.0811  -4.0913  -3.5172  -3.1858
    -2.8542  -2.2124  -1.9464  -1.3622  -1.1703  -0.3993  -0.2786  -0.0666
     0.2860   1.1109   1.5071   3.3587   3.7021   3.9024   4.4448   4.5835
     5.0565   5.4614   6.4926   6.9092   7.9677

     occupation numbers 
     1.0000   1.0000   1.0000   1.0000   1.0000   1.0000   1.0000   1.0000
     1.0000   1.0000   1.0000   1.0000   1.0000   1.0000   1.0000   1.0000
     1.0000   1.0000   1.0000   1.0000   1.0000   1.0000   1.0000   1.0000
     1.0000   1.0000   1.0000   1.0000   1.0000   1.0000   1.0000   1.0000
     1.0000   1.0000   1.0000   1.0000   1.0000   1.0000   1.0000   1.0000
     1.0000   1.0000   1.0000   0.0000   0.0000   0.0000   0.0000   0.0000
     0.0000   0.0000   0.0000   0.0000   0.0000

          k =-0.1396-0.0115 0.0000 ( 14940 PWs)   bands (ev):

   -71.7294 -59.2532 -36.1768 -36.1409 -36.0713 -34.8365 -34.8274 -34.8116
   -34.8086 -34.7770 -34.7759 -34.7333 -34.7240 -34.7023 -34.6932 -33.4379
   -33.3513 -33.3393 -25.9406 -25.9378 -25.9238 -25.9218 -25.9156 -25.9125
   -25.9105 -11.0233 -10.7212  -9.6199  -9.1076  -3.7141  -3.2809  -2.9301
    -2.7735  -2.1445  -1.8489  -1.5721  -1.3388  -1.0396  -0.8279   0.0838
     0.4056   1.0976   1.4586   3.2668   3.7035   3.8155   4.3014   4.5110
     4.5953   5.5299   6.7296   7.5758   8.4911

     occupation numbers 
     1.0000   1.0000   1.0000   1.0000   1.0000   1.0000   1.0000   1.0000
     1.0000   1.0000   1.0000   1.0000   1.0000   1.0000   1.0000   1.0000
     1.0000   1.0000   1.0000   1.0000   1.0000   1.0000   1.0000   1.0000
     1.0000   1.0000   1.0000   1.0000   1.0000   1.0000   1.0000   1.0000
     1.0000   1.0000   1.0000   1.0000   1.0000   1.0000   1.0000   1.0000
     1.0000   1.0000   1.0000   0.0000   0.0000   0.0000   0.0000   0.0000
     0.0000   0.0000   0.0000   0.0000   0.0000

          k =-0.1396 0.0115 0.0000 ( 14940 PWs)   bands (ev):

   -71.7294 -59.2532 -36.1768 -36.1409 -36.0713 -34.8365 -34.8274 -34.8116
   -34.8086 -34.7770 -34.7759 -34.7333 -34.7240 -34.7023 -34.6932 -33.4379
   -33.3513 -33.3393 -25.9406 -25.9378 -25.9238 -25.9218 -25.9156 -25.9125
   -25.9105 -11.0233 -10.7212  -9.6199  -9.1076  -3.7141  -3.2809  -2.9301
    -2.7735  -2.1445  -1.8489  -1.5721  -1.3388  -1.0396  -0.8279   0.0838
     0.4056   1.0976   1.4586   3.2668   3.7035   3.8155   4.3014   4.5110
     4.5953   5.5299   6.7296   7.5758   8.4911

     occupation numbers 
     1.0000   1.0000   1.0000   1.0000   1.0000   1.0000   1.0000   1.0000
     1.0000   1.0000   1.0000   1.0000   1.0000   1.0000   1.0000   1.0000
     1.0000   1.0000   1.0000   1.0000   1.0000   1.0000   1.0000   1.0000
     1.0000   1.0000   1.0000   1.0000   1.0000   1.0000   1.0000   1.0000
     1.0000   1.0000   1.0000   1.0000   1.0000   1.0000   1.0000   1.0000
     1.0000   1.0000   1.0000   0.0000   0.0000   0.0000   0.0000   0.0000
     0.0000   0.0000   0.0000   0.0000   0.0000

          k =-0.1396 0.0345 0.0000 ( 14957 PWs)   bands (ev):

   -71.7293 -59.2530 -36.1775 -36.1499 -36.0646 -34.8421 -34.8261 -34.8104
   -34.8060 -34.7763 -34.7749 -34.7326 -34.7226 -34.7030 -34.6935 -33.4525
   -33.3509 -33.3267 -25.9409 -25.9375 -25.9241 -25.9217 -25.9156 -25.9124
   -25.9105 -10.9975 -10.7120  -9.5546  -9.0811  -4.0913  -3.5172  -3.1858
    -2.8542  -2.2124  -1.9464  -1.3622  -1.1703  -0.3993  -0.2786  -0.0666
     0.2860   1.1109   1.5071   3.3587   3.7021   3.9024   4.4448   4.5835
     5.0565   5.4614   6.4926   6.9092   7.9677

     occupation numbers 
     1.0000   1.0000   1.0000   1.0000   1.0000   1.0000   1.0000   1.0000
     1.0000   1.0000   1.0000   1.0000   1.0000   1.0000   1.0000   1.0000
     1.0000   1.0000   1.0000   1.0000   1.0000   1.0000   1.0000   1.0000
     1.0000   1.0000   1.0000   1.0000   1.0000   1.0000   1.0000   1.0000
     1.0000   1.0000   1.0000   1.0000   1.0000   1.0000   1.0000   1.0000
[...]
     1.0000   1.0000   1.0000   1.0000   1.0000   1.0000   1.0000   1.0000
     1.0000   1.0000   1.0000   0.0000   0.0000   0.0000   0.0000   0.0000
     0.0000   0.0000   0.0000   0.0000   0.0000

          k = 0.1196 0.2303 0.0000 ( 14970 PWs)   bands (ev):

   -71.7287 -59.2515 -36.1822 -36.1617 -36.0701 -34.8444 -34.8253 -34.8084
   -34.8040 -34.7780 -34.7751 -34.7310 -34.7207 -34.7016 -34.6856 -33.4672
   -33.3473 -33.3329 -25.9410 -25.9374 -25.9243 -25.9220 -25.9151 -25.9129
   -25.9103 -10.8322 -10.6228  -9.1799  -8.8799  -4.5406  -3.7129  -3.5578
    -3.0931  -2.2045  -1.9627  -1.3240  -1.1961  -0.3851  -0.2786  -0.1734
     0.1089   1.2683   1.5634   3.3874   3.8790   4.1202   4.5804   4.7406
     5.1812   5.3259   6.1039   6.5723   7.3752

     occupation numbers 
     1.0000   1.0000   1.0000   1.0000   1.0000   1.0000   1.0000   1.0000
     1.0000   1.0000   1.0000   1.0000   1.0000   1.0000   1.0000   1.0000
     1.0000   1.0000   1.0000   1.0000   1.0000   1.0000   1.0000   1.0000
     1.0000   1.0000   1.0000   1.0000   1.0000   1.0000   1.0000   1.0000
     1.0000   1.0000   1.0000   1.0000   1.0000   1.0000   1.0000   1.0000
     1.0000   1.0000   1.0000   0.0000   0.0000   0.0000   0.0000   0.0000
     0.0000   0.0000   0.0000   0.0000   0.0000

          k = 0.1396-0.0806 0.0000 ( 14970 PWs)   bands (ev):

   -71.7290 -59.2523 -36.1799 -36.1672 -36.0561 -34.8501 -34.8241 -34.8120
   -34.7983 -34.7770 -34.7721 -34.7310 -34.7188 -34.7045 -34.6919 -33.4785
   -33.3492 -33.3103 -25.9413 -25.9371 -25.9245 -25.9218 -25.9153 -25.9124
   -25.9104 -10.9042 -10.6717  -9.3199  -8.9773  -4.7813  -3.9398  -3.6002
    -3.0343  -2.2743  -2.0459  -1.1501  -0.7415  -0.3872   0.0809   0.7244
     0.8290   0.9123   1.7342   3.3924   3.8044   4.2091   4.2199   4.9795
     5.4794   5.6713   6.0062   6.7578   7.0637

     occupation numbers 
     1.0000   1.0000   1.0000   1.0000   1.0000   1.0000   1.0000   1.0000
     1.0000   1.0000   1.0000   1.0000   1.0000   1.0000   1.0000   1.0000
     1.0000   1.0000   1.0000   1.0000   1.0000   1.0000   1.0000   1.0000
     1.0000   1.0000   1.0000   1.0000   1.0000   1.0000   1.0000   1.0000
     1.0000   1.0000   1.0000   1.0000   1.0000   1.0000   1.0000   1.0000
     1.0000   1.0000   1.0000   0.0000   0.0000   0.0000   0.0000   0.0000
     0.0000   0.0000   0.0000   0.0000   0.0000

          k = 0.1396-0.0576 0.0000 ( 14952 PWs)   bands (ev):

   -71.7292 -59.2527 -36.1786 -36.1605 -36.0580 -34.8476 -34.8247 -34.8119
   -34.8007 -34.7766 -34.7729 -34.7317 -34.7203 -34.7041 -34.6933 -33.4689
   -33.3501 -33.3144 -25.9412 -25.9372 -25.9243 -25.9217 -25.9155 -25.9123
   -25.9104 -10.9537 -10.6948  -9.4428  -9.0341  -4.5172  -3.7871  -3.4404
    -2.9560  -2.2634  -2.0187  -1.1875  -0.8780  -0.2823   0.1315   0.3146
     0.4128   1.0791   1.6145   3.4063   3.7428   4.0490   4.3520   4.9114
     5.3149   5.8394   6.1823   6.3394   7.4085

     occupation numbers 
     1.0000   1.0000   1.0000   1.0000   1.0000   1.0000   1.0000   1.0000
     1.0000   1.0000   1.0000   1.0000   1.0000   1.0000   1.0000   1.0000
     1.0000   1.0000   1.0000   1.0000   1.0000   1.0000   1.0000   1.0000
     1.0000   1.0000   1.0000   1.0000   1.0000   1.0000   1.0000   1.0000
     1.0000   1.0000   1.0000   1.0000   1.0000   1.0000   1.0000   1.0000
     1.0000   1.0000   1.0000   0.0000   0.0000   0.0000   0.0000   0.0000
     0.0000   0.0000   0.0000   0.0000   0.0000

          k = 0.1396-0.0345 0.0000 ( 14957 PWs)   bands (ev):

   -71.7293 -59.2530 -36.1775 -36.1499 -36.0646 -34.8421 -34.8261 -34.8104
   -34.8060 -34.7763 -34.7749 -34.7326 -34.7226 -34.7030 -34.6935 -33.4525
   -33.3509 -33.3267 -25.9409 -25.9375 -25.9241 -25.9217 -25.9156 -25.9124
   -25.9105 -10.9975 -10.7120  -9.5546  -9.0811  -4.0913  -3.5172  -3.1858
    -2.8542  -2.2124  -1.9464  -1.3622  -1.1703  -0.3993  -0.2786  -0.0666
     0.2860   1.1109   1.5071   3.3587   3.7021   3.9024   4.4448   4.5835
     5.0565   5.4614   6.4926   6.9092   7.9677

     occupation numbers 
     1.0000   1.0000   1.0000   1.0000   1.0000   1.0000   1.0000   1.0000
     1.0000   1.0000   1.0000   1.0000   1.0000   1.0000   1.0000   1.0000
     1.0000   1.0000   1.0000   1.0000   1.0000   1.0000   1.0000   1.0000
     1.0000   1.0000   1.0000   1.0000   1.0000   1.0000   1.0000   1.0000
     1.0000   1.0000   1.0000   1.0000   1.0000   1.0000   1.0000   1.0000
     1.0000   1.0000   1.0000   0.0000   0.0000   0.0000   0.0000   0.0000
     0.0000   0.0000   0.0000   0.0000   0.0000

          k = 0.1396-0.0115 0.0000 ( 14940 PWs)   bands (ev):

   -71.7294 -59.2532 -36.1768 -36.1409 -36.0713 -34.8365 -34.8274 -34.8116
   -34.8086 -34.7770 -34.7759 -34.7333 -34.7240 -34.7023 -34.6932 -33.4379
   -33.3513 -33.3393 -25.9406 -25.9378 -25.9238 -25.9218 -25.9156 -25.9125
   -25.9105 -11.0233 -10.7212  -9.6199  -9.1076  -3.7141  -3.2809  -2.9301
    -2.7735  -2.1445  -1.8489  -1.5721  -1.3388  -1.0396  -0.8279   0.0838
     0.4056   1.0976   1.4586   3.2668   3.7035   3.8155   4.3014   4.5110
     4.5953   5.5299   6.7296   7.5758   8.4911

     occupation numbers 
     1.0000   1.0000   1.0000   1.0000   1.0000   1.0000   1.0000   1.0000
     1.0000   1.0000   1.0000   1.0000   1.0000   1.0000   1.0000   1.0000
     1.0000   1.0000   1.0000   1.0000   1.0000   1.0000   1.0000   1.0000
     1.0000   1.0000   1.0000   1.0000   1.0000   1.0000   1.0000   1.0000
     1.0000   1.0000   1.0000   1.0000   1.0000   1.0000   1.0000   1.0000
     1.0000   1.0000   1.0000   0.0000   0.0000   0.0000   0.0000   0.0000
     0.0000   0.0000   0.0000   0.0000   0.0000

          k = 0.1396 0.0115 0.0000 ( 14940 PWs)   bands (ev):

   -71.7294 -59.2532 -36.1768 -36.1409 -36.0713 -34.8365 -34.8274 -34.8116
   -34.8086 -34.7770 -34.7759 -34.7333 -34.7240 -34.7023 -34.6932 -33.4379
   -33.3513 -33.3393 -25.9406 -25.9378 -25.9238 -25.9218 -25.9156 -25.9125
   -25.9105 -11.0233 -10.7212  -9.6199  -9.1076  -3.7141  -3.2809  -2.9301
    -2.7735  -2.1445  -1.8489  -1.5721  -1.3388  -1.0396  -0.8279   0.0838
     0.4056   1.0976   1.4586   3.2668   3.7035   3.8155   4.3014   4.5110
     4.5953   5.5299   6.7296   7.5758   8.4911

     occupation numbers 
     1.0000   1.0000   1.0000   1.0000   1.0000   1.0000   1.0000   1.0000
     1.0000   1.0000   1.0000   1.0000   1.0000   1.0000   1.0000   1.0000
     1.0000   1.0000   1.0000   1.0000   1.0000   1.0000   1.0000   1.0000
     1.0000   1.0000   1.0000   1.0000   1.0000   1.0000   1.0000   1.0000
     1.0000   1.0000   1.0000   1.0000   1.0000   1.0000   1.0000   1.0000
     1.0000   1.0000   1.0000   0.0000   0.0000   0.0000   0.0000   0.0000
     0.0000   0.0000   0.0000   0.0000   0.0000

          k = 0.1396 0.0345 0.0000 ( 14957 PWs)   bands (ev):

   -71.7293 -59.2530 -36.1775 -36.1499 -36.0646 -34.8421 -34.8261 -34.8104
   -34.8060 -34.7763 -34.7749 -34.7326 -34.7226 -34.7030 -34.6935 -33.4525
   -33.3509 -33.3267 -25.9409 -25.9375 -25.9241 -25.9217 -25.9156 -25.9124
   -25.9105 -10.9975 -10.7120  -9.5546  -9.0811  -4.0913  -3.5172  -3.1858
    -2.8542  -2.2124  -1.9464  -1.3622  -1.1703  -0.3993  -0.2786  -0.0666
     0.2860   1.1109   1.5071   3.3587   3.7021   3.9024   4.4448   4.5835
     5.0565   5.4614   6.4926   6.9092   7.9677

     occupation numbers 
     1.0000   1.0000   1.0000   1.0000   1.0000   1.0000   1.0000   1.0000
     1.0000   1.0000   1.0000   1.0000   1.0000   1.0000   1.0000   1.0000
     1.0000   1.0000   1.0000   1.0000   1.0000   1.0000   1.0000   1.0000
     1.0000   1.0000   1.0000   1.0000   1.0000   1.0000   1.0000   1.0000
     1.0000   1.0000   1.0000   1.0000   1.0000   1.0000   1.0000   1.0000
     1.0000   1.0000   1.0000   0.0000   0.0000   0.0000   0.0000   0.0000
     0.0000   0.0000   0.0000   0.0000   0.0000

          k = 0.1396 0.0576 0.0000 ( 14952 PWs)   bands (ev):

   -71.7292 -59.2527 -36.1786 -36.1605 -36.0580 -34.8476 -34.8247 -34.8119
   -34.8007 -34.7766 -34.7729 -34.7317 -34.7203 -34.7041 -34.6933 -33.4689
   -33.3501 -33.3144 -25.9412 -25.9372 -25.9243 -25.9217 -25.9155 -25.9123
   -25.9104 -10.9537 -10.6948  -9.4428  -9.0341  -4.5172  -3.7871  -3.4404
    -2.9560  -2.2634  -2.0187  -1.1875  -0.8780  -0.2823   0.1315   0.3146
     0.4128   1.0791   1.6145   3.4063   3.7428   4.0490   4.3520   4.9114
     5.3149   5.8394   6.1823   6.3394   7.4085

     occupation numbers 
     1.0000   1.0000   1.0000   1.0000   1.0000   1.0000   1.0000   1.0000
     1.0000   1.0000   1.0000   1.0000   1.0000   1.0000   1.0000   1.0000
     1.0000   1.0000   1.0000   1.0000   1.0000   1.0000   1.0000   1.0000
     1.0000   1.0000   1.0000   1.0000   1.0000   1.0000   1.0000   1.0000
     1.0000   1.0000   1.0000   1.0000   1.0000   1.0000   1.0000   1.0000
     1.0000   1.0000   1.0000   0.0000   0.0000   0.0000   0.0000   0.0000
     0.0000   0.0000   0.0000   0.0000   0.0000

          k = 0.1396 0.0806 0.0000 ( 14970 PWs)   bands (ev):

   -71.7290 -59.2523 -36.1799 -36.1672 -36.0561 -34.8501 -34.8241 -34.8120
   -34.7983 -34.7770 -34.7721 -34.7310 -34.7188 -34.7045 -34.6919 -33.4785
   -33.3492 -33.3103 -25.9413 -25.9371 -25.9245 -25.9218 -25.9153 -25.9124
   -25.9104 -10.9042 -10.6717  -9.3199  -8.9773  -4.7813  -3.9398  -3.6002
    -3.0343  -2.2743  -2.0459  -1.1501  -0.7415  -0.3872   0.0809   0.7244
     0.8290   0.9123   1.7342   3.3924   3.8044   4.2091   4.2199   4.9795
     5.4794   5.6713   6.0062   6.7578   7.0637

     occupation numbers 
     1.0000   1.0000   1.0000   1.0000   1.0000   1.0000   1.0000   1.0000
     1.0000   1.0000   1.0000   1.0000   1.0000   1.0000   1.0000   1.0000
     1.0000   1.0000   1.0000   1.0000   1.0000   1.0000   1.0000   1.0000
     1.0000   1.0000   1.0000   1.0000   1.0000   1.0000   1.0000   1.0000
     1.0000   1.0000   1.0000   1.0000   1.0000   1.0000   1.0000   1.0000
     1.0000   1.0000   1.0000   0.0000   0.0000   0.0000   0.0000   0.0000
     0.0000   0.0000   0.0000   0.0000   0.0000

          k = 0.1396 0.1036 0.0000 ( 14974 PWs)   bands (ev):

   -71.7289 -59.2519 -36.1812 -36.1675 -36.0605 -34.8490 -34.8244 -34.8107
   -34.7995 -34.7775 -34.7729 -34.7307 -34.7191 -34.7034 -34.6891 -33.4778
   -33.3482 -33.3168 -25.9412 -25.9371 -25.9245 -25.9218 -25.9152 -25.9126
   -25.9103 -10.8614 -10.6461  -9.2259  -8.9227  -4.7922  -3.9143  -3.6375
    -3.0783  -2.2508  -2.0221  -1.2137  -0.9052  -0.3437   0.0791   0.3658
     0.5133   1.1660   1.6520   3.4050   3.8452   4.1874   4.3998   5.0104
     5.2802   5.6965   6.0766   6.1905   7.0740

     occupation numbers 
     1.0000   1.0000   1.0000   1.0000   1.0000   1.0000   1.0000   1.0000
     1.0000   1.0000   1.0000   1.0000   1.0000   1.0000   1.0000   1.0000
     1.0000   1.0000   1.0000   1.0000   1.0000   1.0000   1.0000   1.0000
     1.0000   1.0000   1.0000   1.0000   1.0000   1.0000   1.0000   1.0000
     1.0000   1.0000   1.0000   1.0000   1.0000   1.0000   1.0000   1.0000
     1.0000   1.0000   1.0000   0.0000   0.0000   0.0000   0.0000   0.0000
     0.0000   0.0000   0.0000   0.0000   0.0000

          k = 0.1396 0.1266 0.0000 ( 14970 PWs)   bands (ev):

   -71.7287 -59.2515 -36.1822 -36.1617 -36.0701 -34.8444 -34.8253 -34.8084
   -34.8040 -34.7780 -34.7751 -34.7310 -34.7207 -34.7016 -34.6856 -33.4672
   -33.3473 -33.3329 -25.9410 -25.9374 -25.9243 -25.9220 -25.9151 -25.9129
   -25.9103 -10.8322 -10.6228  -9.1799  -8.8799  -4.5406  -3.7129  -3.5578
    -3.0931  -2.2045  -1.9627  -1.3240  -1.1961  -0.3851  -0.2786  -0.1734
     0.1089   1.2683   1.5634   3.3874   3.8790   4.1202   4.5804   4.7406
     5.1812   5.3259   6.1039   6.5723   7.3752

     occupation numbers 
     1.0000   1.0000   1.0000   1.0000   1.0000   1.0000   1.0000   1.0000
     1.0000   1.0000   1.0000   1.0000   1.0000   1.0000   1.0000   1.0000
     1.0000   1.0000   1.0000   1.0000   1.0000   1.0000   1.0000   1.0000
     1.0000   1.0000   1.0000   1.0000   1.0000   1.0000   1.0000   1.0000
     1.0000   1.0000   1.0000   1.0000   1.0000   1.0000   1.0000   1.0000
     1.0000   1.0000   1.0000   0.0000   0.0000   0.0000   0.0000   0.0000
     0.0000   0.0000   0.0000   0.0000   0.0000

          k = 0.1396 0.1497 0.0000 ( 14968 PWs)   bands (ev):

   -71.7286 -59.2513 -36.1827 -36.1527 -36.0816 -34.8380 -34.8262 -34.8104
   -34.8057 -34.7785 -34.7775 -34.7315 -34.7221 -34.7001 -34.6827 -33.4510
   -33.3530 -33.3467 -25.9406 -25.9377 -25.9240 -25.9221 -25.9150 -25.9132
   -25.9103 -10.8168 -10.6063  -9.1694  -8.8537  -4.1293  -3.4409  -3.3870
    -3.0901  -2.1459  -1.9147  -1.5315  -1.3747  -1.1324  -0.9508  -0.1927
     0.1444   1.2920   1.5414   3.3150   3.8125   4.0962   4.3646   4.5775
     4.7422   5.4883   6.6693   7.0211   7.8732

     occupation numbers 
     1.0000   1.0000   1.0000   1.0000   1.0000   1.0000   1.0000   1.0000
     1.0000   1.0000   1.0000   1.0000   1.0000   1.0000   1.0000   1.0000
     1.0000   1.0000   1.0000   1.0000   1.0000   1.0000   1.0000   1.0000
     1.0000   1.0000   1.0000   1.0000   1.0000   1.0000   1.0000   1.0000
     1.0000   1.0000   1.0000   1.0000   1.0000   1.0000   1.0000   1.0000
     1.0000   1.0000   1.0000   0.0000   0.0000   0.0000   0.0000   0.0000
     0.0000   0.0000   0.0000   0.0000   0.0000

          k = 0.1396 0.1727 0.0000 ( 14981 PWs)   bands (ev):

   -71.7286 -59.2512 -36.1829 -36.1477 -36.0874 -34.8341 -34.8267 -34.8143
   -34.8045 -34.7791 -34.7783 -34.7317 -34.7226 -34.6996 -34.6816 -33.4415
   -33.3638 -33.3465 -25.9404 -25.9379 -25.9239 -25.9222 -25.9150 -25.9133
   -25.9103 -10.8123 -10.6003  -9.1696  -8.8450  -3.8811  -3.3497  -3.2306
    -3.0816  -2.0897  -1.9490  -1.6127  -1.5148  -1.4059  -1.3187  -0.1634
     0.1661   1.2950   1.5402   3.2745   3.7470   4.1054   4.2794   4.3321
     4.7579   5.5845   6.9970   7.3063   8.0850

     occupation numbers 
     1.0000   1.0000   1.0000   1.0000   1.0000   1.0000   1.0000   1.0000
     1.0000   1.0000   1.0000   1.0000   1.0000   1.0000   1.0000   1.0000
     1.0000   1.0000   1.0000   1.0000   1.0000   1.0000   1.0000   1.0000
     1.0000   1.0000   1.0000   1.0000   1.0000   1.0000   1.0000   1.0000
     1.0000   1.0000   1.0000   1.0000   1.0000   1.0000   1.0000   1.0000
     1.0000   1.0000   1.0000   0.0000   0.0000   0.0000   0.0000   0.0000
     0.0000   0.0000   0.0000   0.0000   0.0000

          k = 0.1396 0.1957 0.0000 ( 14968 PWs)   bands (ev):

   -71.7286 -59.2513 -36.1827 -36.1527 -36.0816 -34.8380 -34.8262 -34.8104
   -34.8057 -34.7785 -34.7775 -34.7315 -34.7221 -34.7001 -34.6827 -33.4510
   -33.3530 -33.3467 -25.9406 -25.9377 -25.9240 -25.9221 -25.9150 -25.9132
   -25.9103 -10.8168 -10.6063  -9.1694  -8.8537  -4.1293  -3.4409  -3.3870
    -3.0901  -2.1459  -1.9147  -1.5315  -1.3747  -1.1324  -0.9508  -0.1927
     0.1444   1.2920   1.5414   3.3150   3.8125   4.0962   4.3646   4.5775
     4.7422   5.4883   6.6693   7.0211   7.8732

     occupation numbers 
     1.0000   1.0000   1.0000   1.0000   1.0000   1.0000   1.0000   1.0000
     1.0000   1.0000   1.0000   1.0000   1.0000   1.0000   1.0000   1.0000
     1.0000   1.0000   1.0000   1.0000   1.0000   1.0000   1.0000   1.0000
     1.0000   1.0000   1.0000   1.0000   1.0000   1.0000   1.0000   1.0000
     1.0000   1.0000   1.0000   1.0000   1.0000   1.0000   1.0000   1.0000
     1.0000   1.0000   1.0000   0.0000   0.0000   0.0000   0.0000   0.0000
     0.0000   0.0000   0.0000   0.0000   0.0000

          k = 0.1396 0.2188 0.0000 ( 14970 PWs)   bands (ev):

   -71.7287 -59.2515 -36.1822 -36.1617 -36.0701 -34.8444 -34.8253 -34.8084
   -34.8040 -34.7780 -34.7751 -34.7310 -34.7207 -34.7016 -34.6856 -33.4672
   -33.3473 -33.3329 -25.9410 -25.9374 -25.9243 -25.9220 -25.9151 -25.9129
   -25.9103 -10.8322 -10.6228  -9.1799  -8.8799  -4.5406  -3.7129  -3.5578
    -3.0931  -2.2045  -1.9627  -1.3240  -1.1961  -0.3851  -0.2786  -0.1734
     0.1089   1.2683   1.5634   3.3874   3.8790   4.1202   4.5804   4.7406
     5.1812   5.3259   6.1039   6.5723   7.3752

     occupation numbers 
     1.0000   1.0000   1.0000   1.0000   1.0000   1.0000   1.0000   1.0000
     1.0000   1.0000   1.0000   1.0000   1.0000   1.0000   1.0000   1.0000
     1.0000   1.0000   1.0000   1.0000   1.0000   1.0000   1.0000   1.0000
     1.0000   1.0000   1.0000   1.0000   1.0000   1.0000   1.0000   1.0000
     1.0000   1.0000   1.0000   1.0000   1.0000   1.0000   1.0000   1.0000
     1.0000   1.0000   1.0000   0.0000   0.0000   0.0000   0.0000   0.0000
     0.0000   0.0000   0.0000   0.0000   0.0000

          k = 0.1396 0.2418 0.0000 ( 14974 PWs)   bands (ev):

   -71.7289 -59.2519 -36.1812 -36.1675 -36.0605 -34.8490 -34.8244 -34.8107
   -34.7995 -34.7775 -34.7729 -34.7307 -34.7191 -34.7034 -34.6891 -33.4778
   -33.3482 -33.3168 -25.9412 -25.9371 -25.9245 -25.9218 -25.9152 -25.9126
   -25.9103 -10.8614 -10.6461  -9.2259  -8.9227  -4.7922  -3.9143  -3.6375
    -3.0783  -2.2508  -2.0221  -1.2137  -0.9052  -0.3437   0.0791   0.3658
     0.5133   1.1660   1.6520   3.4050   3.8452   4.1874   4.3998   5.0104
     5.2802   5.6965   6.0766   6.1905   7.0740

     occupation numbers 
     1.0000   1.0000   1.0000   1.0000   1.0000   1.0000   1.0000   1.0000
     1.0000   1.0000   1.0000   1.0000   1.0000   1.0000   1.0000   1.0000
     1.0000   1.0000   1.0000   1.0000   1.0000   1.0000   1.0000   1.0000
     1.0000   1.0000   1.0000   1.0000   1.0000   1.0000   1.0000   1.0000
     1.0000   1.0000   1.0000   1.0000   1.0000   1.0000   1.0000   1.0000
     1.0000   1.0000   1.0000   0.0000   0.0000   0.0000   0.0000   0.0000
     0.0000   0.0000   0.0000   0.0000   0.0000

     highest occupied, lowest unoccupied level (ev):     1.9175    2.9770

     Writing all to output data dir ./calc.save/

     init_run     :      0.32s CPU      0.33s WALL (       1 calls)
     electrons    :    887.32s CPU    447.62s WALL (       1 calls)

     Called by init_run:
     wfcinit      :      0.00s CPU      0.00s WALL (       1 calls)
     wfcinit:wfcr :     13.17s CPU      7.95s WALL (     225 calls)
     potinit      :      0.01s CPU      0.01s WALL (       1 calls)
     hinit0       :      0.28s CPU      0.28s WALL (       1 calls)

     Called by electrons:
     c_bands      :    887.30s CPU    447.60s WALL (       1 calls)
     v_of_rho     :      0.01s CPU      0.01s WALL (       1 calls)
     v_h          :      0.00s CPU      0.00s WALL (       1 calls)
     v_xc         :      0.01s CPU      0.01s WALL (       1 calls)

     Called by c_bands:
     init_us_2    :      0.37s CPU      0.10s WALL (     225 calls)
     init_us_2:cp :      0.37s CPU      0.10s WALL (     225 calls)
     cegterg      :    864.89s CPU    431.33s WALL (     687 calls)

     Called by sum_band:

     Called by *egterg:
     cdiaghg      :    280.21s CPU    127.02s WALL (   11687 calls)
     cegterg:over :    150.66s CPU     57.44s WALL (   11462 calls)
     cegterg:upda :     35.76s CPU      7.63s WALL (   11462 calls)
     cegterg:last :     47.78s CPU     11.86s WALL (    6253 calls)
     h_psi        :    260.53s CPU    189.37s WALL (   12374 calls)
     g_psi        :      5.62s CPU      2.85s WALL (   11462 calls)

     Called by h_psi:
     h_psi:calbec :     52.96s CPU     18.61s WALL (   12374 calls)
     vloc_psi     :    171.62s CPU    159.71s WALL (   12374 calls)
     add_vuspsi   :     35.31s CPU     10.55s WALL (   12374 calls)

     General routines
     calbec       :     52.90s CPU     18.56s WALL (   12374 calls)
     fft          :      0.07s CPU      0.07s WALL (      10 calls)
     fftw         :    163.97s CPU    152.06s WALL (  701430 calls)
     davcio       :      0.52s CPU      1.15s WALL (     450 calls)

     Parallel routines

     PWSCF        :  14m51.49s CPU   7m38.26s WALL


   This run was terminated on:  17:21:53  29Jun2023            

=------------------------------------------------------------------------------=
   JOB DONE.
=------------------------------------------------------------------------------=
