
     Program PWSCF v.7.1 starts on 27Jun2023 at 18:39:31 

     This program is part of the open-source Quantum ESPRESSO suite
     for quantum simulation of materials; please cite
         "P. Giannozzi et al., J. Phys.:Condens. Matter 21 395502 (2009);
         "P. Giannozzi et al., J. Phys.:Condens. Matter 29 465901 (2017);
         "P. Giannozzi et al., J. Chem. Phys. 152 154105 (2020);
          URL http://www.quantum-espresso.org", 
     in publications or presentations arising from this work. More details at
     http://www.quantum-espresso.org/quote

     Parallel version (MPI), running on    42 processors

     MPI processes distributed on     1 nodes
     569406 MiB available memory on the printing compute node when the environment starts

     Waiting for input...
     Reading input from standard input

     Current dimensions of program PWSCF are:
     Max number of different atomic species (ntypx) = 10
     Max number of k-points (npk) =  40000
     Max angular momentum in pseudopotentials (lmaxx) =  4
     Message from routine cell_base_init:
     DEPRECATED: use true lattice parameter, not A to a.u. conversion factor

     IMPORTANT: XC functional enforced from input :
     Exchange-correlation= PBE
                           (   1   4   3   4   0   0   0)
     Any further DFT definition will be discarded
     Please, verify this is what you really want

     Message from routine setup:
     using ibrav=0 with symmetry is DISCOURAGED, use correct ibrav instead

     R & G space division:  proc/nbgrp/npool/nimage =      42
     Subspace diagonalization in iterative solution of the eigenvalue problem:
     a serial algorithm will be used


     Parallelization info
     --------------------
     sticks:   dense  smooth     PW     G-vecs:    dense   smooth      PW
     Min          10      10      3                 2240     2240     367
     Max          11      11      6                 2327     2327     403
     Sum         439     439    139                95223    95223   15927

     Using Slab Decomposition



     bravais-lattice index     =            0
     lattice parameter (alat)  =       1.8897  a.u.
     unit-cell volume          =    1993.2286 (a.u.)^3
     number of atoms/cell      =            6
     number of atomic types    =            2
     number of electrons       =        52.00
     number of Kohn-Sham states=           36
     kinetic-energy cutoff     =      50.0000  Ry
     charge density cutoff     =     199.9999  Ry
     scf convergence threshold =      7.3E-08
     mixing beta               =       0.7000
     number of iterations used =            8  plain     mixing
     Exchange-correlation= PBE
                           (   1   4   3   4   0   0   0)

     celldm(1)=   1.889726  celldm(2)=   0.000000  celldm(3)=   0.000000
     celldm(4)=   0.000000  celldm(5)=   0.000000  celldm(6)=   0.000000

     crystal axes: (cart. coord. in units of alat)
               a(1) = (   3.002000   0.000000   0.000000 )  
               a(2) = (  -1.501000   2.599808   0.000000 )  
               a(3) = (   0.000000   0.000000  37.845000 )  

     reciprocal axes: (cart. coord. in units 2 pi/alat)
               b(1) = (  0.333111  0.192322 -0.000000 )  
               b(2) = (  0.000000  0.384644  0.000000 )  
               b(3) = (  0.000000 -0.000000  0.026424 )  


     PseudoPot. # 1 for Mo read from file:
     /ccs/home/dpalmer3/qe-7.1/pseudo/Mo.UPF
     MD5 check sum: e75ed155aa411dd1617a1e98b4cfb1d3
     Pseudo is Norm-conserving, Zval = 14.0
     Generated using ONCVPSP code by D. R. Hamann
     Using radial grid of  602 points,  6 beta functions with: 
                l(1) =   0
                l(2) =   0
                l(3) =   1
                l(4) =   1
                l(5) =   2
                l(6) =   2

     PseudoPot. # 2 for S  read from file:
     /ccs/home/dpalmer3/qe-7.1/pseudo/S.UPF
     MD5 check sum: bb66adc3f78a1ab6d878b9658eae71a4
     Pseudo is Norm-conserving, Zval =  6.0
     Generated using ONCVPSP code by D. R. Hamann
     Using radial grid of  602 points,  4 beta functions with: 
                l(1) =   0
                l(2) =   0
                l(3) =   1
                l(4) =   1

     atomic species   valence    mass     pseudopotential
        Mo1           14.00    95.95000     Mo( 1.00)
        S1             6.00    32.06000     S ( 1.00)

      6 Sym. Ops. (no inversion) found



   Cartesian axes

     site n.     atom                  positions (alat units)
         1           Mo1 tau(   1) = (   0.0000000   0.0000000  11.5850000  )
         2           S1  tau(   2) = (   1.5010000   0.8666028  13.1700000  )
         3           S1  tau(   3) = (   1.5010000   0.8666028  10.0000000  )
         4           Mo1 tau(   4) = (   1.5010000   0.8666028  17.8450000  )
         5           S1  tau(   5) = (  -0.0000000   1.7332055  19.4300000  )
         6           S1  tau(   6) = (  -0.0000000   1.7332055  16.2600000  )

     number of k points=    27
                       cart. coord. in units 2pi/alat
        k(    1) = (   0.0000000   0.0000000   0.0000000), wk =   0.0088889
        k(    2) = (   0.0000000   0.0256429   0.0000000), wk =   0.0533333
        k(    3) = (   0.0000000   0.0512858   0.0000000), wk =   0.0533333
        k(    4) = (   0.0000000   0.0769288   0.0000000), wk =   0.0533333
        k(    5) = (   0.0000000   0.1025717   0.0000000), wk =   0.0533333
        k(    6) = (   0.0000000   0.1282146   0.0000000), wk =   0.0533333
        k(    7) = (   0.0000000   0.1538575   0.0000000), wk =   0.0533333
        k(    8) = (   0.0000000   0.1795004   0.0000000), wk =   0.0533333
        k(    9) = (   0.0222074   0.0384644   0.0000000), wk =   0.0533333
        k(   10) = (   0.0222074   0.0641073   0.0000000), wk =   0.1066667
        k(   11) = (   0.0222074   0.0897502   0.0000000), wk =   0.1066667
        k(   12) = (   0.0222074   0.1153931   0.0000000), wk =   0.1066667
        k(   13) = (   0.0222074   0.1410360   0.0000000), wk =   0.1066667
        k(   14) = (   0.0222074   0.1666790   0.0000000), wk =   0.1066667
        k(   15) = (   0.0222074   0.1923219   0.0000000), wk =   0.0533333
        k(   16) = (   0.0444148   0.0769288   0.0000000), wk =   0.0533333
        k(   17) = (   0.0444148   0.1025717   0.0000000), wk =   0.1066667
        k(   18) = (   0.0444148   0.1282146   0.0000000), wk =   0.1066667
        k(   19) = (   0.0444148   0.1538575   0.0000000), wk =   0.1066667
        k(   20) = (   0.0444148   0.1795004   0.0000000), wk =   0.1066667
        k(   21) = (   0.0666223   0.1153931   0.0000000), wk =   0.0533333
        k(   22) = (   0.0666223   0.1410360   0.0000000), wk =   0.1066667
        k(   23) = (   0.0666223   0.1666790   0.0000000), wk =   0.1066667
        k(   24) = (   0.0666223   0.1923219   0.0000000), wk =   0.0533333
        k(   25) = (   0.0888297   0.1538575   0.0000000), wk =   0.0533333
        k(   26) = (   0.0888297   0.1795004   0.0000000), wk =   0.1066667
        k(   27) = (   0.1110371   0.1923219   0.0000000), wk =   0.0177778

     Dense  grid:    95223 G-vectors     FFT dimensions: (  25,  25, 324)

     Estimated max dynamical RAM per process >       9.17 MB

     Estimated total dynamical RAM >     385.25 MB

     Atomic positions and unit cell read from directory:
     ./calc.save/

     Cannot read rho : file not found

     Initial potential from superposition of free atoms

     starting charge      51.7773, renormalised to      52.0000

     negative rho (up, down):  5.839E-04 0.000E+00
     Wavefunctions not found or not readable, recomputing them from scratch
     Starting wfcs are random

     total cpu time spent up to now is        3.3 secs

     Self-consistent Calculation

     iteration #  1     ecut=    50.00 Ry     beta= 0.70
     Davidson diagonalization with overlap
     c_bands:  5 eigenvalues not converged
     c_bands:  5 eigenvalues not converged
     c_bands:  4 eigenvalues not converged
     c_bands:  4 eigenvalues not converged
     c_bands:  4 eigenvalues not converged
     c_bands:  4 eigenvalues not converged
     c_bands:  5 eigenvalues not converged
     c_bands:  1 eigenvalues not converged
     c_bands:  2 eigenvalues not converged
     c_bands:  4 eigenvalues not converged
     c_bands:  4 eigenvalues not converged
     ethr =  1.00E-05,  avg # of iterations = 28.0

     negative rho (up, down):  1.374E-04 0.000E+00

     total cpu time spent up to now is       20.5 secs

     total energy              =    -356.50805336 Ry
     estimated scf accuracy    <       0.23964501 Ry

     iteration #  2     ecut=    50.00 Ry     beta= 0.70
     Davidson diagonalization with overlap
     ethr =  4.61E-04,  avg # of iterations =  4.5

     negative rho (up, down):  9.133E-05 0.000E+00

     total cpu time spent up to now is       23.4 secs

     total energy              =    -356.45387183 Ry
     estimated scf accuracy    <       0.59715114 Ry

     iteration #  3     ecut=    50.00 Ry     beta= 0.70
     Davidson diagonalization with overlap
     ethr =  4.61E-04,  avg # of iterations =  3.0

     negative rho (up, down):  5.099E-05 0.000E+00

     total cpu time spent up to now is       25.7 secs

     total energy              =    -356.56607834 Ry
     estimated scf accuracy    <       0.25974860 Ry

     iteration #  4     ecut=    50.00 Ry     beta= 0.70
     Davidson diagonalization with overlap
     ethr =  4.61E-04,  avg # of iterations =  1.1

     negative rho (up, down):  2.495E-05 0.000E+00

     total cpu time spent up to now is       27.2 secs

     total energy              =    -356.59732956 Ry
     estimated scf accuracy    <       0.00623737 Ry

     iteration #  5     ecut=    50.00 Ry     beta= 0.70
     Davidson diagonalization with overlap
     ethr =  1.20E-05,  avg # of iterations =  7.7

     negative rho (up, down):  3.370E-06 0.000E+00

     total cpu time spent up to now is       31.1 secs

     total energy              =    -356.59425067 Ry
     estimated scf accuracy    <       0.08275696 Ry

     iteration #  6     ecut=    50.00 Ry     beta= 0.70
     Davidson diagonalization with overlap
     ethr =  1.20E-05,  avg # of iterations =  5.4

     negative rho (up, down):  7.400E-07 0.000E+00

     total cpu time spent up to now is       34.1 secs

     total energy              =    -356.60067837 Ry
     estimated scf accuracy    <       0.00015108 Ry

     iteration #  7     ecut=    50.00 Ry     beta= 0.70
     Davidson diagonalization with overlap
     ethr =  2.91E-07,  avg # of iterations =  6.1

     negative rho (up, down):  2.704E-07 0.000E+00

     total cpu time spent up to now is       37.6 secs

     total energy              =    -356.60069385 Ry
     estimated scf accuracy    <       0.00062734 Ry

     iteration #  8     ecut=    50.00 Ry     beta= 0.70
     Davidson diagonalization with overlap
     ethr =  2.91E-07,  avg # of iterations =  3.2

     total cpu time spent up to now is       39.7 secs

     total energy              =    -356.60076128 Ry
     estimated scf accuracy    <       0.00002130 Ry

     iteration #  9     ecut=    50.00 Ry     beta= 0.70
     Davidson diagonalization with overlap
     ethr =  4.10E-08,  avg # of iterations =  2.5

     negative rho (up, down):  2.219E-08 0.000E+00

     total cpu time spent up to now is       41.6 secs

     total energy              =    -356.60076653 Ry
     estimated scf accuracy    <       0.00002133 Ry

     iteration # 10     ecut=    50.00 Ry     beta= 0.70
     Davidson diagonalization with overlap
     ethr =  4.10E-08,  avg # of iterations =  2.0

     negative rho (up, down):  1.117E-07 0.000E+00

     total cpu time spent up to now is       43.4 secs

     total energy              =    -356.60077281 Ry
     estimated scf accuracy    <       0.00000245 Ry

     iteration # 11     ecut=    50.00 Ry     beta= 0.70
     Davidson diagonalization with overlap
     ethr =  4.70E-09,  avg # of iterations =  3.4

     total cpu time spent up to now is       45.8 secs

     total energy              =    -356.60077486 Ry
     estimated scf accuracy    <       0.00000029 Ry

     iteration # 12     ecut=    50.00 Ry     beta= 0.70
     Davidson diagonalization with overlap
     ethr =  5.52E-10,  avg # of iterations =  5.3

     total cpu time spent up to now is       49.0 secs

     End of self-consistent calculation

          k = 0.0000 0.0000 0.0000 ( 11921 PWs)   bands (ev):

   -60.6410 -60.6005 -34.9558 -34.9146 -34.4794 -34.4794 -34.4395 -34.4395
   -14.8116 -14.6741 -13.4736 -13.2631  -6.4365  -5.9594  -2.8508  -2.4394
    -2.4394  -2.3993  -2.3993  -1.8180  -1.1440  -1.1440  -1.1020  -1.1020
    -0.7663   0.0143   3.3159   3.3159   3.3712   3.3712   3.4884   3.4884
     3.5488   3.5488   5.3571   5.3929

          k = 0.0000 0.0256 0.0000 ( 11937 PWs)   bands (ev):

   -60.6375 -60.5970 -34.9493 -34.9081 -34.5096 -34.4860 -34.4698 -34.4462
   -14.7275 -14.5901 -13.4345 -13.2279  -6.3419  -5.8646  -2.9921  -2.6223
    -2.5819  -2.3505  -2.3102  -2.1338  -1.2799  -1.2371  -1.1265  -0.9762
    -0.7302  -0.0086   3.1967   3.2117   3.2505   3.2807   3.3645   3.4466
     3.4681   3.5219   5.4684   5.5040

          k = 0.0000 0.0513 0.0000 ( 11981 PWs)   bands (ev):

   -60.6274 -60.5869 -34.9310 -34.8899 -34.5945 -34.5547 -34.5048 -34.4650
   -14.4825 -14.3458 -13.3204 -13.1258  -6.0846  -5.6114  -3.3472  -3.0787
    -3.0364  -2.7084  -2.0970  -2.0560  -1.6210  -1.5764  -1.2038  -0.9114
    -0.7159  -0.1686   2.6054   2.7710   3.0369   3.1316   3.1324   3.2272
     3.7712   3.8451   5.7712   5.8068

          k = 0.0000 0.0769 0.0000 ( 11987 PWs)   bands (ev):

   -60.6126 -60.5721 -34.9040 -34.8629 -34.7178 -34.6779 -34.5324 -34.4926
   -14.0986 -13.9644 -13.1421 -12.9670  -5.7646  -5.3255  -3.8229  -3.6033
    -3.5534  -3.3333  -2.0443  -1.9976  -1.7202  -1.6769  -1.4495  -1.1035
    -0.8544  -0.5553   2.0885   2.4298   2.8643   2.9660   3.0829   3.3123
     4.1220   4.2204   6.2373   6.2734

          k = 0.0000 0.1026 0.0000 ( 11949 PWs)   bands (ev):

   -60.5955 -60.5550 -34.8729 -34.8567 -34.8317 -34.8169 -34.5639 -34.5240
   -13.6135 -13.4851 -12.9191 -12.7703  -5.6082  -5.2978  -4.3493  -4.0681
    -3.9449  -3.8033  -2.4536  -2.4054  -1.8112  -1.4533  -1.2975  -1.2471
    -1.1343  -0.9792   1.9790   2.4091   2.6870   2.7824   3.3611   3.6796
     4.4026   4.5332   6.8300   6.8697

          k = 0.0000 0.1282 0.0000 ( 11895 PWs)   bands (ev):

   -60.5791 -60.5386 -34.9871 -34.9473 -34.8429 -34.8017 -34.5938 -34.5539
   -13.0856 -12.9688 -12.6812 -12.5648  -5.8060  -5.6444  -4.8527  -4.6432
    -4.1428  -3.9674  -2.7940  -2.7447  -2.1403  -1.7955  -1.2651  -1.1033
    -0.9289  -0.8639   2.2519   2.6452   2.6775   2.7541   3.7012   4.0263
     4.5803   4.7431   7.4082   7.4895

          k = 0.0000 0.1539 0.0000 ( 11897 PWs)   bands (ev):

   -60.5663 -60.5258 -35.0875 -35.0477 -34.8194 -34.7782 -34.6170 -34.5772
   -12.6111 -12.5132 -12.4618 -12.3888  -6.1698  -6.0751  -5.2649  -5.1182
    -4.3495  -4.1853  -3.0343  -2.9843  -2.3538  -2.0349  -1.0745  -0.8883
    -0.6910  -0.6075   2.7134   2.8192   2.8740   3.0101   3.9371   4.2271
     4.6717   4.8593   7.2281   7.6511

          k = 0.0000 0.1795 0.0000 ( 11911 PWs)   bands (ev):

   -60.5592 -60.5188 -35.1419 -35.1020 -34.8065 -34.7653 -34.6297 -34.5898
   -12.3759 -12.3081 -12.2625 -12.2156  -6.4362  -6.3579  -5.5003  -5.3847
    -4.5140  -4.3593  -3.1581  -3.1077  -2.4499  -2.1541  -0.8149  -0.6709
    -0.5872  -0.4915   2.9684   3.0119   3.1286   3.3134   4.0262   4.2940
     4.7071   4.9082   6.6668   7.0636

          k = 0.0222 0.0385 0.0000 ( 11975 PWs)   bands (ev):

   -60.6307 -60.5902 -34.9370 -34.8958 -34.5662 -34.5264 -34.4998 -34.4599
   -14.5629 -14.4259 -13.3578 -13.1592  -6.1649  -5.6891  -3.2295  -2.9385
    -2.8977  -2.5259  -2.1822  -2.1418  -1.5928  -1.5502  -1.1001  -0.8470
    -0.6984  -0.0947   2.7917   2.9057   3.0388   3.0886   3.2042   3.2751
     3.7081   3.7632   5.6746   5.7102

          k = 0.0222 0.0641 0.0000 ( 11980 PWs)   bands (ev):

   -60.6182 -60.5777 -34.9143 -34.8731 -34.6676 -34.6277 -34.5257 -34.4858
   -14.2482 -14.1127 -13.2113 -13.0284  -5.8671  -5.4062  -3.6060  -3.4169
    -3.3721  -3.0463  -2.1123  -2.0697  -1.8867  -1.8446  -1.1380  -0.8531
    -0.7511  -0.3629   2.2338   2.5033   2.9112   2.9527   3.0101   3.1065
     4.0829   4.1367   6.0613   6.0970

          k = 0.0222 0.0898 0.0000 ( 11943 PWs)   bands (ev):

   -60.6023 -60.5618 -34.8852 -34.8440 -34.7951 -34.7552 -34.5587 -34.5189
   -13.8125 -13.6812 -13.0093 -12.8492  -5.6049  -5.2221  -4.0749  -3.8431
    -3.7864  -3.6105  -2.6279  -2.5632  -1.5796  -1.5396  -1.3422  -1.0774
    -0.9368  -0.7627   1.9005   2.2848   2.7761   2.8360   3.0933   3.3413
     4.4177   4.4810   6.6017   6.6385

          k = 0.0222 0.1154 0.0000 ( 11930 PWs)   bands (ev):

   -60.5855 -60.5451 -34.9260 -34.8862 -34.8546 -34.8134 -34.5931 -34.5533
   -13.3026 -13.1800 -12.7761 -12.6451  -5.6328  -5.4109  -4.5817  -4.3476
    -4.0296  -3.8629  -3.0034  -2.9021  -1.7005  -1.5299  -1.4968  -1.3979
    -0.8882  -0.8405   1.9333   2.3215   2.8132   2.8660   3.4134   3.6961
     4.6356   4.6987   7.2351   7.2801

          k = 0.0222 0.1410 0.0000 ( 11890 PWs)   bands (ev):

   -60.5709 -60.5304 -35.0382 -34.9984 -34.8279 -34.7867 -34.6229 -34.5831
   -12.7928 -12.6849 -12.5452 -12.4499  -5.9399  -5.8203  -5.0697  -4.9162
    -4.1981  -4.0255  -3.2007  -3.0984  -2.0398  -1.8037  -1.4890  -1.3832
    -0.6588  -0.6191   2.2459   2.5676   3.0119   3.0686   3.7612   4.0172
     4.6926   4.7548   7.6612   7.8221

          k = 0.0222 0.1667 0.0000 ( 11887 PWs)   bands (ev):

   -60.5610 -60.5205 -35.1134 -35.0736 -34.8096 -34.7685 -34.6430 -34.6032
   -12.4224 -12.3528 -12.3109 -12.2845  -6.2640  -6.1807  -5.4277  -5.3157
    -4.4066  -4.2469  -3.2644  -3.1900  -2.2966  -2.0540  -1.2956  -1.2115
    -0.4617  -0.4063   2.6747   2.8598   3.2336   3.3267   4.0427   4.2581
     4.5855   4.6905   6.9469   7.4308

          k = 0.0222 0.1923 0.0000 ( 11882 PWs)   bands (ev):

   -60.5574 -60.5170 -35.1398 -35.1000 -34.8032 -34.7620 -34.6501 -34.6102
   -12.3321 -12.2687 -12.1978 -12.1475  -6.4015  -6.3242  -5.5591  -5.4590
    -4.5002  -4.3453  -3.2683  -3.2161  -2.3956  -2.1453  -1.1975  -1.1456
    -0.3724  -0.3053   2.9245   2.9609   3.3325   3.4571   4.1840   4.4121
     4.4432   4.6191   6.6293   7.0098

          k = 0.0444 0.0769 0.0000 ( 11929 PWs)   bands (ev):

   -60.6047 -60.5642 -34.8896 -34.8484 -34.7684 -34.7286 -34.5618 -34.5219
   -13.8808 -13.7485 -13.0401 -12.8761  -5.6051  -5.1945  -3.9207  -3.7634
    -3.7084  -3.3954  -2.8441  -2.7993  -1.7067  -1.6630  -1.0912  -0.8803
    -0.8300  -0.6340   1.8639   2.2229   2.8033   2.8139   2.9280   3.1347
     4.4566   4.5040   6.5288   6.5645

          k = 0.0444 0.1026 0.0000 ( 11920 PWs)   bands (ev):

   -60.5890 -60.5486 -34.8800 -34.8611 -34.8402 -34.8199 -34.6056 -34.5658
   -13.4171 -13.2916 -12.8247 -12.6861  -5.5053  -5.2304  -4.2859  -4.0465
    -3.9115  -3.7715  -3.4157  -3.2660  -1.8381  -1.7929  -1.2330  -1.0488
    -0.8260  -0.7915   1.6902   2.1164   2.8941   2.9143   3.0843   3.3267
     4.7191   4.7815   7.1369   7.1733

          k = 0.0444 0.1282 0.0000 ( 11900 PWs)   bands (ev):

   -60.5741 -60.5336 -34.9843 -34.9444 -34.8337 -34.7925 -34.6483 -34.6085
   -12.9156 -12.8022 -12.5924 -12.4854  -5.6867  -5.5321  -4.8142  -4.6931
    -4.0058  -3.8261  -3.5972  -3.3884  -2.0738  -2.0108  -1.5831  -1.4378
    -0.6928  -0.6488   1.8541   2.3123   3.1536   3.1775   3.3610   3.5755
     4.8304   4.9088   7.8048   7.8467

          k = 0.0444 0.1539 0.0000 ( 11877 PWs)   bands (ev):

   -60.5623 -60.5218 -35.0644 -35.0246 -34.8122 -34.7710 -34.6818 -34.6420
   -12.4769 -12.3917 -12.3553 -12.3082  -5.9668  -5.8674  -5.3235  -5.2418
    -4.1862  -4.0192  -3.5743  -3.3891  -2.0980  -1.9980  -1.9571  -1.8240
    -0.4965  -0.4436   2.2770   2.6549   3.3967   3.4536   3.6243   3.7976
     4.7749   4.9180   7.4348   7.9302

          k = 0.0444 0.1795 0.0000 ( 11849 PWs)   bands (ev):

   -60.5559 -60.5154 -35.1078 -35.0680 -34.8004 -34.7592 -34.7002 -34.6604
   -12.2894 -12.2250 -12.1503 -12.0977  -6.1625  -6.0830  -5.6169  -5.5434
    -4.3760  -4.2171  -3.4606  -3.3468  -2.2823  -2.1068  -2.0027  -1.8957
    -0.3163  -0.2356   2.7053   2.8586   3.5086   3.6198   3.7799   3.9569
     4.6618   4.8759   6.8397   7.2992

          k = 0.0666 0.1154 0.0000 ( 11878 PWs)   bands (ev):

   -60.5752 -60.5347 -34.9585 -34.9186 -34.8357 -34.7945 -34.6642 -34.6244
   -12.9585 -12.8433 -12.6079 -12.4969  -5.5709  -5.3972  -4.6349  -4.5624
    -3.9941  -3.7728  -3.7234  -3.4962  -2.3644  -2.3066  -1.3834  -1.2808
    -0.7269  -0.6683   1.7076   2.2185   3.1093   3.1926   3.2481   3.3807
     4.9069   5.0177   7.7920   7.8262

          k = 0.0666 0.1410 0.0000 ( 11873 PWs)   bands (ev):

   -60.5631 -60.5226 -35.0201 -34.9803 -34.8136 -34.7724 -34.7212 -34.6814
   -12.5144 -12.4179 -12.3766 -12.3101  -5.7192  -5.5969  -5.2223  -5.1808
    -3.9770  -3.7744  -3.7030  -3.5075  -2.7786  -2.6865  -1.7426  -1.6594
    -0.5735  -0.5148   2.0324   2.5168   3.2429   3.3753   3.5074   3.5530
     5.0390   5.1938   7.9931   8.2779

          k = 0.0666 0.1667 0.0000 ( 11853 PWs)   bands (ev):

   -60.5548 -60.5143 -35.0588 -35.0189 -34.7985 -34.7626 -34.7573 -34.7228
   -12.2573 -12.1887 -12.1249 -12.0699  -5.8334  -5.7370  -5.6607  -5.6141
    -4.1515  -3.9942  -3.6304  -3.4309  -2.8763  -2.7381  -2.1378  -2.0313
    -0.3289  -0.2697   2.4397   2.7106   3.2821   3.3755   3.6885   3.7687
     5.1243   5.3015   7.2842   7.7695

          k = 0.0666 0.1923 0.0000 ( 11828 PWs)   bands (ev):

   -60.5519 -60.5114 -35.0718 -35.0320 -34.7932 -34.7778 -34.7520 -34.7380
   -12.1880 -12.1345 -11.9978 -11.9487  -5.8832  -5.8156  -5.7847  -5.7586
    -4.3021  -4.1484  -3.4900  -3.3707  -2.8781  -2.7333  -2.3152  -2.2171
    -0.1959  -0.1227   2.6476   2.7132   3.2712   3.3698   3.7429   3.8679
     5.1525   5.3312   6.9968   7.4708

          k = 0.0888 0.1539 0.0000 ( 11844 PWs)   bands (ev):

   -60.5545 -60.5140 -35.0299 -34.9900 -34.7979 -34.7965 -34.7567 -34.7566
   -12.2455 -12.1747 -12.1169 -12.0612  -5.7037  -5.6594  -5.6267  -5.5411
    -3.8942  -3.8096  -3.6491  -3.4609  -3.3433  -3.3089  -2.0810  -1.9973
    -0.3434  -0.2946   2.3246   2.6354   3.1151   3.1679   3.7317   3.8132
     5.3279   5.4863   7.7678   7.8712

          k = 0.0888 0.1795 0.0000 ( 11821 PWs)   bands (ev):

   -60.5498 -60.5093 -35.0223 -34.9825 -34.8506 -34.8108 -34.7893 -34.7481
   -12.1286 -12.0799 -11.9156 -11.8688  -5.9653  -5.9276  -5.4883  -5.4091
    -4.2393  -4.1458  -3.5770  -3.4792  -3.3609  -3.2705  -2.3958  -2.3083
    -0.0978  -0.0448   2.4691   2.5601   2.9888   3.0354   3.8642   3.9962
     5.5413   5.6504   7.3484   7.8085

          k = 0.1110 0.1923 0.0000 ( 11844 PWs)   bands (ev):

   -60.5480 -60.5075 -34.9824 -34.9426 -34.9088 -34.8690 -34.7860 -34.7448
   -12.0806 -12.0403 -11.8372 -11.7966  -6.0797  -6.0426  -5.1547  -5.1028
    -4.5143  -4.5031  -3.6743  -3.6343  -3.2409  -3.2297  -2.5552  -2.4649
     0.0324   0.0794   2.4061   2.4376   2.8801   2.8970   4.0081   4.0423
     5.7553   5.7563   7.3930   7.9913

     highest occupied, lowest unoccupied level (ev):     0.0794    1.6902

!    total energy              =    -356.60077524 Ry
     estimated scf accuracy    <       0.00000002 Ry

     The total energy is the sum of the following terms:
     one-electron contribution =   -7163.72158346 Ry
     hartree contribution      =    3583.19417200 Ry
     xc contribution           =     -49.86944942 Ry
     ewald contribution        =    3273.79608563 Ry

     convergence has been achieved in  12 iterations

     Forces acting on atoms (cartesian axes, Ry/au):

     atom    1 type  1   force =     0.00000000    0.00000000   -0.00082620
     atom    2 type  2   force =     0.00000000   -0.00000000    0.03130873
     atom    3 type  2   force =     0.00000000    0.00000000   -0.03660016
     atom    4 type  1   force =     0.00000000    0.00000000    0.00151724
     atom    5 type  2   force =     0.00000000   -0.00000000    0.03627550
     atom    6 type  2   force =     0.00000000    0.00000000   -0.03167511

     Total force =     0.068132     Total SCF correction =     0.000880

     Writing all to output data dir ./calc.save/

     init_run     :      2.13s CPU      2.34s WALL (       1 calls)
     electrons    :     81.65s CPU     45.79s WALL (       1 calls)
     forces       :      1.19s CPU      0.86s WALL (       1 calls)

     Called by init_run:
     wfcinit      :      1.25s CPU      1.03s WALL (       1 calls)
     potinit      :      0.05s CPU      0.05s WALL (       1 calls)
     hinit0       :      0.80s CPU      1.23s WALL (       1 calls)

     Called by electrons:
     c_bands      :     80.10s CPU     44.17s WALL (      12 calls)
     sum_band     :      1.45s CPU      1.49s WALL (      12 calls)
     v_of_rho     :      0.05s CPU      0.06s WALL (      13 calls)
     mix_rho      :      0.04s CPU      0.03s WALL (      12 calls)

     Called by c_bands:
     init_us_2    :      0.33s CPU      0.14s WALL (     702 calls)
     init_us_2:cp :      0.33s CPU      0.14s WALL (     702 calls)
     cegterg      :     77.26s CPU     42.20s WALL (     342 calls)

     Called by *egterg:
     cdiaghg      :     21.54s CPU      9.46s WALL (    2271 calls)
     h_psi        :     24.89s CPU     20.76s WALL (    2316 calls)
     g_psi        :      0.52s CPU      0.24s WALL (    1947 calls)

     Called by h_psi:
     h_psi:calbec :      2.12s CPU      1.39s WALL (    2316 calls)
     vloc_psi     :     19.11s CPU     18.57s WALL (    2316 calls)
     add_vuspsi   :      3.60s CPU      0.75s WALL (    2316 calls)

     General routines
     calbec       :      3.24s CPU      2.17s WALL (    2424 calls)
     fft          :      0.07s CPU      0.07s WALL (     131 calls)
     ffts         :      0.00s CPU      0.00s WALL (      12 calls)
     fftw         :     19.69s CPU     19.21s WALL (  105490 calls)

     Parallel routines

     PWSCF        :   1m25.25s CPU     50.33s WALL


   This run was terminated on:  18:40:21  27Jun2023            

=------------------------------------------------------------------------------=
   JOB DONE.
=------------------------------------------------------------------------------=
