
     Program PWSCF v.7.1 starts on 27Jun2023 at 18:40:26 

     This program is part of the open-source Quantum ESPRESSO suite
     for quantum simulation of materials; please cite
         "P. Giannozzi et al., J. Phys.:Condens. Matter 21 395502 (2009);
         "P. Giannozzi et al., J. Phys.:Condens. Matter 29 465901 (2017);
         "P. Giannozzi et al., J. Chem. Phys. 152 154105 (2020);
          URL http://www.quantum-espresso.org", 
     in publications or presentations arising from this work. More details at
     http://www.quantum-espresso.org/quote

     Parallel version (MPI), running on    42 processors

     MPI processes distributed on     1 nodes
     569041 MiB available memory on the printing compute node when the environment starts

     Waiting for input...
     Reading input from standard input

     Current dimensions of program PWSCF are:
     Max number of different atomic species (ntypx) = 10
     Max number of k-points (npk) =  40000
     Max angular momentum in pseudopotentials (lmaxx) =  4
     Message from routine input:
     WARNING: "startingwfc" set to atomic+random may spoil restart
     Message from routine cell_base_init:
     DEPRECATED: use true lattice parameter, not A to a.u. conversion factor

     IMPORTANT: XC functional enforced from input :
     Exchange-correlation= PBE
                           (   1   4   3   4   0   0   0)
     Any further DFT definition will be discarded
     Please, verify this is what you really want

     Message from routine setup:
     using ibrav=0 with symmetry is DISCOURAGED, use correct ibrav instead

     R & G space division:  proc/nbgrp/npool/nimage =      42
     Subspace diagonalization in iterative solution of the eigenvalue problem:
     a serial algorithm will be used


     Parallelization info
     --------------------
     sticks:   dense  smooth     PW     G-vecs:    dense   smooth      PW
     Min          10      10      3                 2240     2240     411
     Max          11      11      4                 2327     2327     450
     Sum         439     439    151                95223    95223   18023

     Using Slab Decomposition



     bravais-lattice index     =            0
     lattice parameter (alat)  =       1.8897  a.u.
     unit-cell volume          =    1993.2286 (a.u.)^3
     number of atoms/cell      =            6
     number of atomic types    =            2
     number of electrons       =        52.00
     number of Kohn-Sham states=           36
     kinetic-energy cutoff     =      50.0000  Ry
     charge density cutoff     =     199.9999  Ry
     Exchange-correlation= PBE
                           (   1   4   3   4   0   0   0)

     celldm(1)=   1.889726  celldm(2)=   0.000000  celldm(3)=   0.000000
     celldm(4)=   0.000000  celldm(5)=   0.000000  celldm(6)=   0.000000

     crystal axes: (cart. coord. in units of alat)
               a(1) = (   3.002000   0.000000   0.000000 )  
               a(2) = (  -1.501000   2.599808   0.000000 )  
               a(3) = (   0.000000   0.000000  37.845000 )  

     reciprocal axes: (cart. coord. in units 2 pi/alat)
               b(1) = (  0.333111  0.192322 -0.000000 )  
               b(2) = (  0.000000  0.384644  0.000000 )  
               b(3) = (  0.000000 -0.000000  0.026424 )  


     PseudoPot. # 1 for Mo read from file:
     /ccs/home/dpalmer3/qe-7.1/pseudo/Mo.UPF
     MD5 check sum: e75ed155aa411dd1617a1e98b4cfb1d3
     Pseudo is Norm-conserving, Zval = 14.0
     Generated using ONCVPSP code by D. R. Hamann
     Using radial grid of  602 points,  6 beta functions with: 
                l(1) =   0
                l(2) =   0
                l(3) =   1
                l(4) =   1
                l(5) =   2
                l(6) =   2

     PseudoPot. # 2 for S  read from file:
     /ccs/home/dpalmer3/qe-7.1/pseudo/S.UPF
     MD5 check sum: bb66adc3f78a1ab6d878b9658eae71a4
     Pseudo is Norm-conserving, Zval =  6.0
     Generated using ONCVPSP code by D. R. Hamann
     Using radial grid of  602 points,  4 beta functions with: 
                l(1) =   0
                l(2) =   0
                l(3) =   1
                l(4) =   1

     atomic species   valence    mass     pseudopotential
        Mo1           14.00    95.95000     Mo( 1.00)
        S1             6.00    32.06000     S ( 1.00)

      6 Sym. Ops. (no inversion) found


                                    s                        frac. trans.

      isym =  1     identity                                     

 cryst.   s( 1) = (     1          0          0      )
                  (     0          1          0      )
                  (     0          0          1      )

 cart.    s( 1) = (  1.0000000  0.0000000  0.0000000 )
                  (  0.0000000  1.0000000  0.0000000 )
                  (  0.0000000  0.0000000  1.0000000 )


      isym =  2     120 deg rotation - cryst. axis [0,0,1]       

 cryst.   s( 2) = (     0          1          0      )
                  (    -1         -1          0      )
                  (     0          0          1      )

 cart.    s( 2) = ( -0.5000000 -0.8660254  0.0000000 )
                  (  0.8660254 -0.5000000  0.0000000 )
                  (  0.0000000  0.0000000  1.0000000 )


      isym =  3     120 deg rotation - cryst. axis [0,0,-1]      

 cryst.   s( 3) = (    -1         -1          0      )
                  (     1          0          0      )
                  (     0          0          1      )

 cart.    s( 3) = ( -0.5000000  0.8660254  0.0000000 )
                  ( -0.8660254 -0.5000000  0.0000000 )
                  (  0.0000000  0.0000000  1.0000000 )


      isym =  4     inv. 180 deg rotation - cart. axis [1,0,0]   

 cryst.   s( 4) = (    -1          0          0      )
                  (     1          1          0      )
                  (     0          0          1      )

 cart.    s( 4) = ( -1.0000000  0.0000000  0.0000000 )
                  (  0.0000000  1.0000000  0.0000000 )
                  (  0.0000000  0.0000000  1.0000000 )


      isym =  5     inv. 180 deg rotation - cryst. axis [0,1,0]  

 cryst.   s( 5) = (     1          1          0      )
                  (     0         -1          0      )
                  (     0          0          1      )

 cart.    s( 5) = (  0.5000000  0.8660254  0.0000000 )
                  (  0.8660254 -0.5000000  0.0000000 )
                  (  0.0000000  0.0000000  1.0000000 )


      isym =  6     inv. 180 deg rotation - cryst. axis [1,1,0]  

 cryst.   s( 6) = (     0         -1          0      )
                  (    -1          0          0      )
                  (     0          0          1      )

 cart.    s( 6) = (  0.5000000 -0.8660254  0.0000000 )
                  ( -0.8660254 -0.5000000  0.0000000 )
                  (  0.0000000  0.0000000  1.0000000 )


   Cartesian axes

     site n.     atom                  positions (alat units)
         1           Mo1 tau(   1) = (   0.0000000   0.0000000  11.5850000  )
         2           S1  tau(   2) = (   1.5010000   0.8666028  13.1700000  )
         3           S1  tau(   3) = (   1.5010000   0.8666028  10.0000000  )
         4           Mo1 tau(   4) = (   1.5010000   0.8666028  17.8450000  )
         5           S1  tau(   5) = (  -0.0000000   1.7332055  19.4300000  )
         6           S1  tau(   6) = (  -0.0000000   1.7332055  16.2600000  )

   Crystallographic axes

     site n.     atom                  positions (cryst. coord.)
         1           Mo1 tau(   1) = (  0.0000000  0.0000000  0.3061171  )
         2           S1  tau(   2) = (  0.6666667  0.3333333  0.3479984  )
         3           S1  tau(   3) = (  0.6666667  0.3333333  0.2642357  )
         4           Mo1 tau(   4) = (  0.6666667  0.3333333  0.4715286  )
         5           S1  tau(   5) = (  0.3333333  0.6666667  0.5134100  )
         6           S1  tau(   6) = (  0.3333333  0.6666667  0.4296472  )

     number of k points=   225
                       cart. coord. in units 2pi/alat
        k(    1) = (  -0.1554519  -0.2692506   0.0000000), wk =   0.0088889
        k(    2) = (  -0.1554519  -0.2436077   0.0000000), wk =   0.0088889
        k(    3) = (  -0.1554519  -0.2179648   0.0000000), wk =   0.0088889
        k(    4) = (  -0.1554519  -0.1923219   0.0000000), wk =   0.0088889
        k(    5) = (  -0.1554519  -0.1666790   0.0000000), wk =   0.0088889
        k(    6) = (  -0.1554519  -0.1410360   0.0000000), wk =   0.0088889
        k(    7) = (  -0.1554519  -0.1153931   0.0000000), wk =   0.0088889
        k(    8) = (  -0.1554519  -0.0897502   0.0000000), wk =   0.0088889
        k(    9) = (  -0.1554519  -0.0641073   0.0000000), wk =   0.0088889
        k(   10) = (  -0.1554519  -0.0384644   0.0000000), wk =   0.0088889
        k(   11) = (  -0.1554519  -0.0128215   0.0000000), wk =   0.0088889
        k(   12) = (  -0.1554519   0.0128215   0.0000000), wk =   0.0088889
        k(   13) = (  -0.1554519   0.0384644   0.0000000), wk =   0.0088889
        k(   14) = (  -0.1554519   0.0641073   0.0000000), wk =   0.0088889
        k(   15) = (  -0.1554519   0.0897502   0.0000000), wk =   0.0088889
        k(   16) = (  -0.1332445  -0.2564292   0.0000000), wk =   0.0088889
        k(   17) = (  -0.1332445  -0.2307863   0.0000000), wk =   0.0088889
        k(   18) = (  -0.1332445  -0.2051433   0.0000000), wk =   0.0088889
        k(   19) = (  -0.1332445  -0.1795004   0.0000000), wk =   0.0088889
        k(   20) = (  -0.1332445  -0.1538575   0.0000000), wk =   0.0088889
        k(   21) = (  -0.1332445  -0.1282146   0.0000000), wk =   0.0088889
        k(   22) = (  -0.1332445  -0.1025717   0.0000000), wk =   0.0088889
        k(   23) = (  -0.1332445  -0.0769288   0.0000000), wk =   0.0088889
        k(   24) = (  -0.1332445  -0.0512858   0.0000000), wk =   0.0088889
        k(   25) = (  -0.1332445  -0.0256429   0.0000000), wk =   0.0088889
        k(   26) = (  -0.1332445   0.0000000   0.0000000), wk =   0.0088889
        k(   27) = (  -0.1332445   0.0256429   0.0000000), wk =   0.0088889
        k(   28) = (  -0.1332445   0.0512858   0.0000000), wk =   0.0088889
        k(   29) = (  -0.1332445   0.0769288   0.0000000), wk =   0.0088889
        k(   30) = (  -0.1332445   0.1025717   0.0000000), wk =   0.0088889
        k(   31) = (  -0.1110371  -0.2436077   0.0000000), wk =   0.0088889
        k(   32) = (  -0.1110371  -0.2179648   0.0000000), wk =   0.0088889
        k(   33) = (  -0.1110371  -0.1923219   0.0000000), wk =   0.0088889
        k(   34) = (  -0.1110371  -0.1666790   0.0000000), wk =   0.0088889
        k(   35) = (  -0.1110371  -0.1410360   0.0000000), wk =   0.0088889
        k(   36) = (  -0.1110371  -0.1153931   0.0000000), wk =   0.0088889
        k(   37) = (  -0.1110371  -0.0897502   0.0000000), wk =   0.0088889
        k(   38) = (  -0.1110371  -0.0641073   0.0000000), wk =   0.0088889
        k(   39) = (  -0.1110371  -0.0384644   0.0000000), wk =   0.0088889
        k(   40) = (  -0.1110371  -0.0128215   0.0000000), wk =   0.0088889
        k(   41) = (  -0.1110371   0.0128215   0.0000000), wk =   0.0088889
        k(   42) = (  -0.1110371   0.0384644   0.0000000), wk =   0.0088889
        k(   43) = (  -0.1110371   0.0641073   0.0000000), wk =   0.0088889
        k(   44) = (  -0.1110371   0.0897502   0.0000000), wk =   0.0088889
        k(   45) = (  -0.1110371   0.1153931   0.0000000), wk =   0.0088889
        k(   46) = (  -0.0888297  -0.2307863   0.0000000), wk =   0.0088889
        k(   47) = (  -0.0888297  -0.2051433   0.0000000), wk =   0.0088889
        k(   48) = (  -0.0888297  -0.1795004   0.0000000), wk =   0.0088889
        k(   49) = (  -0.0888297  -0.1538575   0.0000000), wk =   0.0088889
        k(   50) = (  -0.0888297  -0.1282146   0.0000000), wk =   0.0088889
        k(   51) = (  -0.0888297  -0.1025717   0.0000000), wk =   0.0088889
        k(   52) = (  -0.0888297  -0.0769288   0.0000000), wk =   0.0088889
        k(   53) = (  -0.0888297  -0.0512858   0.0000000), wk =   0.0088889
        k(   54) = (  -0.0888297  -0.0256429   0.0000000), wk =   0.0088889
        k(   55) = (  -0.0888297  -0.0000000   0.0000000), wk =   0.0088889
        k(   56) = (  -0.0888297   0.0256429   0.0000000), wk =   0.0088889
        k(   57) = (  -0.0888297   0.0512858   0.0000000), wk =   0.0088889
        k(   58) = (  -0.0888297   0.0769288   0.0000000), wk =   0.0088889
        k(   59) = (  -0.0888297   0.1025717   0.0000000), wk =   0.0088889
        k(   60) = (  -0.0888297   0.1282146   0.0000000), wk =   0.0088889
        k(   61) = (  -0.0666223  -0.2179648   0.0000000), wk =   0.0088889
        k(   62) = (  -0.0666223  -0.1923219   0.0000000), wk =   0.0088889
        k(   63) = (  -0.0666223  -0.1666790   0.0000000), wk =   0.0088889
        k(   64) = (  -0.0666223  -0.1410360   0.0000000), wk =   0.0088889
        k(   65) = (  -0.0666223  -0.1153931   0.0000000), wk =   0.0088889
        k(   66) = (  -0.0666223  -0.0897502   0.0000000), wk =   0.0088889
        k(   67) = (  -0.0666223  -0.0641073   0.0000000), wk =   0.0088889
        k(   68) = (  -0.0666223  -0.0384644   0.0000000), wk =   0.0088889
        k(   69) = (  -0.0666223  -0.0128215   0.0000000), wk =   0.0088889
        k(   70) = (  -0.0666223   0.0128215   0.0000000), wk =   0.0088889
        k(   71) = (  -0.0666223   0.0384644   0.0000000), wk =   0.0088889
        k(   72) = (  -0.0666223   0.0641073   0.0000000), wk =   0.0088889
        k(   73) = (  -0.0666223   0.0897502   0.0000000), wk =   0.0088889
        k(   74) = (  -0.0666223   0.1153931   0.0000000), wk =   0.0088889
        k(   75) = (  -0.0666223   0.1410360   0.0000000), wk =   0.0088889
        k(   76) = (  -0.0444148  -0.2051433   0.0000000), wk =   0.0088889
        k(   77) = (  -0.0444148  -0.1795004   0.0000000), wk =   0.0088889
        k(   78) = (  -0.0444148  -0.1538575   0.0000000), wk =   0.0088889
        k(   79) = (  -0.0444148  -0.1282146   0.0000000), wk =   0.0088889
        k(   80) = (  -0.0444148  -0.1025717   0.0000000), wk =   0.0088889
        k(   81) = (  -0.0444148  -0.0769288   0.0000000), wk =   0.0088889
        k(   82) = (  -0.0444148  -0.0512858   0.0000000), wk =   0.0088889
        k(   83) = (  -0.0444148  -0.0256429   0.0000000), wk =   0.0088889
        k(   84) = (  -0.0444148  -0.0000000   0.0000000), wk =   0.0088889
        k(   85) = (  -0.0444148   0.0256429   0.0000000), wk =   0.0088889
        k(   86) = (  -0.0444148   0.0512858   0.0000000), wk =   0.0088889
        k(   87) = (  -0.0444148   0.0769288   0.0000000), wk =   0.0088889
        k(   88) = (  -0.0444148   0.1025717   0.0000000), wk =   0.0088889
        k(   89) = (  -0.0444148   0.1282146   0.0000000), wk =   0.0088889
        k(   90) = (  -0.0444148   0.1538575   0.0000000), wk =   0.0088889
        k(   91) = (  -0.0222074  -0.1923219   0.0000000), wk =   0.0088889
        k(   92) = (  -0.0222074  -0.1666790   0.0000000), wk =   0.0088889
        k(   93) = (  -0.0222074  -0.1410360   0.0000000), wk =   0.0088889
        k(   94) = (  -0.0222074  -0.1153931   0.0000000), wk =   0.0088889
        k(   95) = (  -0.0222074  -0.0897502   0.0000000), wk =   0.0088889
        k(   96) = (  -0.0222074  -0.0641073   0.0000000), wk =   0.0088889
        k(   97) = (  -0.0222074  -0.0384644   0.0000000), wk =   0.0088889
        k(   98) = (  -0.0222074  -0.0128215   0.0000000), wk =   0.0088889
        k(   99) = (  -0.0222074   0.0128215   0.0000000), wk =   0.0088889
        k(  100) = (  -0.0222074   0.0384644   0.0000000), wk =   0.0088889
        k(  101) = (  -0.0222074   0.0641073   0.0000000), wk =   0.0088889
        k(  102) = (  -0.0222074   0.0897502   0.0000000), wk =   0.0088889
        k(  103) = (  -0.0222074   0.1153931   0.0000000), wk =   0.0088889
        k(  104) = (  -0.0222074   0.1410360   0.0000000), wk =   0.0088889
        k(  105) = (  -0.0222074   0.1666790   0.0000000), wk =   0.0088889
        k(  106) = (   0.0000000  -0.1795004   0.0000000), wk =   0.0088889
        k(  107) = (   0.0000000  -0.1538575   0.0000000), wk =   0.0088889
        k(  108) = (   0.0000000  -0.1282146   0.0000000), wk =   0.0088889
        k(  109) = (   0.0000000  -0.1025717   0.0000000), wk =   0.0088889
        k(  110) = (   0.0000000  -0.0769288   0.0000000), wk =   0.0088889
        k(  111) = (   0.0000000  -0.0512858   0.0000000), wk =   0.0088889
        k(  112) = (   0.0000000  -0.0256429   0.0000000), wk =   0.0088889
        k(  113) = (   0.0000000   0.0000000   0.0000000), wk =   0.0088889
        k(  114) = (   0.0000000   0.0256429   0.0000000), wk =   0.0088889
        k(  115) = (   0.0000000   0.0512858   0.0000000), wk =   0.0088889
        k(  116) = (   0.0000000   0.0769288   0.0000000), wk =   0.0088889
        k(  117) = (   0.0000000   0.1025717   0.0000000), wk =   0.0088889
        k(  118) = (   0.0000000   0.1282146   0.0000000), wk =   0.0088889
        k(  119) = (   0.0000000   0.1538575   0.0000000), wk =   0.0088889
        k(  120) = (   0.0000000   0.1795004   0.0000000), wk =   0.0088889
        k(  121) = (   0.0222074  -0.1666790   0.0000000), wk =   0.0088889
        k(  122) = (   0.0222074  -0.1410360   0.0000000), wk =   0.0088889
        k(  123) = (   0.0222074  -0.1153931   0.0000000), wk =   0.0088889
        k(  124) = (   0.0222074  -0.0897502   0.0000000), wk =   0.0088889
        k(  125) = (   0.0222074  -0.0641073   0.0000000), wk =   0.0088889
        k(  126) = (   0.0222074  -0.0384644   0.0000000), wk =   0.0088889
        k(  127) = (   0.0222074  -0.0128215   0.0000000), wk =   0.0088889
        k(  128) = (   0.0222074   0.0128215   0.0000000), wk =   0.0088889
        k(  129) = (   0.0222074   0.0384644   0.0000000), wk =   0.0088889
        k(  130) = (   0.0222074   0.0641073   0.0000000), wk =   0.0088889
        k(  131) = (   0.0222074   0.0897502   0.0000000), wk =   0.0088889
        k(  132) = (   0.0222074   0.1153931   0.0000000), wk =   0.0088889
        k(  133) = (   0.0222074   0.1410360   0.0000000), wk =   0.0088889
        k(  134) = (   0.0222074   0.1666790   0.0000000), wk =   0.0088889
        k(  135) = (   0.0222074   0.1923219   0.0000000), wk =   0.0088889
        k(  136) = (   0.0444148  -0.1538575   0.0000000), wk =   0.0088889
        k(  137) = (   0.0444148  -0.1282146   0.0000000), wk =   0.0088889
        k(  138) = (   0.0444148  -0.1025717   0.0000000), wk =   0.0088889
        k(  139) = (   0.0444148  -0.0769288   0.0000000), wk =   0.0088889
        k(  140) = (   0.0444148  -0.0512858   0.0000000), wk =   0.0088889
        k(  141) = (   0.0444148  -0.0256429   0.0000000), wk =   0.0088889
        k(  142) = (   0.0444148   0.0000000   0.0000000), wk =   0.0088889
        k(  143) = (   0.0444148   0.0256429   0.0000000), wk =   0.0088889
        k(  144) = (   0.0444148   0.0512858   0.0000000), wk =   0.0088889
        k(  145) = (   0.0444148   0.0769288   0.0000000), wk =   0.0088889
        k(  146) = (   0.0444148   0.1025717   0.0000000), wk =   0.0088889
        k(  147) = (   0.0444148   0.1282146   0.0000000), wk =   0.0088889
        k(  148) = (   0.0444148   0.1538575   0.0000000), wk =   0.0088889
        k(  149) = (   0.0444148   0.1795004   0.0000000), wk =   0.0088889
        k(  150) = (   0.0444148   0.2051433   0.0000000), wk =   0.0088889
        k(  151) = (   0.0666223  -0.1410360   0.0000000), wk =   0.0088889
        k(  152) = (   0.0666223  -0.1153931   0.0000000), wk =   0.0088889
        k(  153) = (   0.0666223  -0.0897502   0.0000000), wk =   0.0088889
        k(  154) = (   0.0666223  -0.0641073   0.0000000), wk =   0.0088889
        k(  155) = (   0.0666223  -0.0384644   0.0000000), wk =   0.0088889
        k(  156) = (   0.0666223  -0.0128215   0.0000000), wk =   0.0088889
        k(  157) = (   0.0666223   0.0128215   0.0000000), wk =   0.0088889
        k(  158) = (   0.0666223   0.0384644   0.0000000), wk =   0.0088889
        k(  159) = (   0.0666223   0.0641073   0.0000000), wk =   0.0088889
        k(  160) = (   0.0666223   0.0897502   0.0000000), wk =   0.0088889
        k(  161) = (   0.0666223   0.1153931   0.0000000), wk =   0.0088889
        k(  162) = (   0.0666223   0.1410360   0.0000000), wk =   0.0088889
        k(  163) = (   0.0666223   0.1666790   0.0000000), wk =   0.0088889
        k(  164) = (   0.0666223   0.1923219   0.0000000), wk =   0.0088889
        k(  165) = (   0.0666223   0.2179648   0.0000000), wk =   0.0088889
        k(  166) = (   0.0888297  -0.1282146   0.0000000), wk =   0.0088889
        k(  167) = (   0.0888297  -0.1025717   0.0000000), wk =   0.0088889
        k(  168) = (   0.0888297  -0.0769288   0.0000000), wk =   0.0088889
        k(  169) = (   0.0888297  -0.0512858   0.0000000), wk =   0.0088889
        k(  170) = (   0.0888297  -0.0256429   0.0000000), wk =   0.0088889
        k(  171) = (   0.0888297  -0.0000000   0.0000000), wk =   0.0088889
        k(  172) = (   0.0888297   0.0256429   0.0000000), wk =   0.0088889
        k(  173) = (   0.0888297   0.0512858   0.0000000), wk =   0.0088889
        k(  174) = (   0.0888297   0.0769288   0.0000000), wk =   0.0088889
        k(  175) = (   0.0888297   0.1025717   0.0000000), wk =   0.0088889
        k(  176) = (   0.0888297   0.1282146   0.0000000), wk =   0.0088889
        k(  177) = (   0.0888297   0.1538575   0.0000000), wk =   0.0088889
        k(  178) = (   0.0888297   0.1795004   0.0000000), wk =   0.0088889
        k(  179) = (   0.0888297   0.2051433   0.0000000), wk =   0.0088889
        k(  180) = (   0.0888297   0.2307863   0.0000000), wk =   0.0088889
        k(  181) = (   0.1110371  -0.1153931   0.0000000), wk =   0.0088889
        k(  182) = (   0.1110371  -0.0897502   0.0000000), wk =   0.0088889
        k(  183) = (   0.1110371  -0.0641073   0.0000000), wk =   0.0088889
        k(  184) = (   0.1110371  -0.0384644   0.0000000), wk =   0.0088889
        k(  185) = (   0.1110371  -0.0128215   0.0000000), wk =   0.0088889
        k(  186) = (   0.1110371   0.0128215   0.0000000), wk =   0.0088889
        k(  187) = (   0.1110371   0.0384644   0.0000000), wk =   0.0088889
        k(  188) = (   0.1110371   0.0641073   0.0000000), wk =   0.0088889
        k(  189) = (   0.1110371   0.0897502   0.0000000), wk =   0.0088889
        k(  190) = (   0.1110371   0.1153931   0.0000000), wk =   0.0088889
        k(  191) = (   0.1110371   0.1410360   0.0000000), wk =   0.0088889
        k(  192) = (   0.1110371   0.1666790   0.0000000), wk =   0.0088889
        k(  193) = (   0.1110371   0.1923219   0.0000000), wk =   0.0088889
        k(  194) = (   0.1110371   0.2179648   0.0000000), wk =   0.0088889
        k(  195) = (   0.1110371   0.2436077   0.0000000), wk =   0.0088889
        k(  196) = (   0.1332445  -0.1025717   0.0000000), wk =   0.0088889
        k(  197) = (   0.1332445  -0.0769288   0.0000000), wk =   0.0088889
        k(  198) = (   0.1332445  -0.0512858   0.0000000), wk =   0.0088889
        k(  199) = (   0.1332445  -0.0256429   0.0000000), wk =   0.0088889
        k(  200) = (   0.1332445  -0.0000000   0.0000000), wk =   0.0088889
        k(  201) = (   0.1332445   0.0256429   0.0000000), wk =   0.0088889
        k(  202) = (   0.1332445   0.0512858   0.0000000), wk =   0.0088889
        k(  203) = (   0.1332445   0.0769288   0.0000000), wk =   0.0088889
        k(  204) = (   0.1332445   0.1025717   0.0000000), wk =   0.0088889
        k(  205) = (   0.1332445   0.1282146   0.0000000), wk =   0.0088889
        k(  206) = (   0.1332445   0.1538575   0.0000000), wk =   0.0088889
        k(  207) = (   0.1332445   0.1795004   0.0000000), wk =   0.0088889
        k(  208) = (   0.1332445   0.2051433   0.0000000), wk =   0.0088889
        k(  209) = (   0.1332445   0.2307863   0.0000000), wk =   0.0088889
        k(  210) = (   0.1332445   0.2564292   0.0000000), wk =   0.0088889
        k(  211) = (   0.1554519  -0.0897502   0.0000000), wk =   0.0088889
        k(  212) = (   0.1554519  -0.0641073   0.0000000), wk =   0.0088889
        k(  213) = (   0.1554519  -0.0384644   0.0000000), wk =   0.0088889
        k(  214) = (   0.1554519  -0.0128215   0.0000000), wk =   0.0088889
        k(  215) = (   0.1554519   0.0128215   0.0000000), wk =   0.0088889
        k(  216) = (   0.1554519   0.0384644   0.0000000), wk =   0.0088889
        k(  217) = (   0.1554519   0.0641073   0.0000000), wk =   0.0088889
        k(  218) = (   0.1554519   0.0897502   0.0000000), wk =   0.0088889
        k(  219) = (   0.1554519   0.1153931   0.0000000), wk =   0.0088889
        k(  220) = (   0.1554519   0.1410360   0.0000000), wk =   0.0088889
        k(  221) = (   0.1554519   0.1666790   0.0000000), wk =   0.0088889
        k(  222) = (   0.1554519   0.1923219   0.0000000), wk =   0.0088889
        k(  223) = (   0.1554519   0.2179648   0.0000000), wk =   0.0088889
        k(  224) = (   0.1554519   0.2436077   0.0000000), wk =   0.0088889
        k(  225) = (   0.1554519   0.2692506   0.0000000), wk =   0.0088889

                       cryst. coord.
        k(    1) = (  -0.4666667  -0.4666667   0.0000000), wk =   0.0088889
        k(    2) = (  -0.4666667  -0.4000000   0.0000000), wk =   0.0088889
        k(    3) = (  -0.4666667  -0.3333333   0.0000000), wk =   0.0088889
        k(    4) = (  -0.4666667  -0.2666667   0.0000000), wk =   0.0088889
        k(    5) = (  -0.4666667  -0.2000000   0.0000000), wk =   0.0088889
        k(    6) = (  -0.4666667  -0.1333333   0.0000000), wk =   0.0088889
        k(    7) = (  -0.4666667  -0.0666667   0.0000000), wk =   0.0088889
        k(    8) = (  -0.4666667  -0.0000000   0.0000000), wk =   0.0088889
        k(    9) = (  -0.4666667   0.0666667   0.0000000), wk =   0.0088889
        k(   10) = (  -0.4666667   0.1333333   0.0000000), wk =   0.0088889
        k(   11) = (  -0.4666667   0.2000000   0.0000000), wk =   0.0088889
        k(   12) = (  -0.4666667   0.2666667   0.0000000), wk =   0.0088889
        k(   13) = (  -0.4666667   0.3333333   0.0000000), wk =   0.0088889
        k(   14) = (  -0.4666667   0.4000000   0.0000000), wk =   0.0088889
        k(   15) = (  -0.4666667   0.4666667   0.0000000), wk =   0.0088889
        k(   16) = (  -0.4000000  -0.4666667   0.0000000), wk =   0.0088889
        k(   17) = (  -0.4000000  -0.4000000   0.0000000), wk =   0.0088889
        k(   18) = (  -0.4000000  -0.3333333   0.0000000), wk =   0.0088889
        k(   19) = (  -0.4000000  -0.2666667   0.0000000), wk =   0.0088889
        k(   20) = (  -0.4000000  -0.2000000   0.0000000), wk =   0.0088889
        k(   21) = (  -0.4000000  -0.1333333   0.0000000), wk =   0.0088889
        k(   22) = (  -0.4000000  -0.0666667   0.0000000), wk =   0.0088889
        k(   23) = (  -0.4000000  -0.0000000   0.0000000), wk =   0.0088889
        k(   24) = (  -0.4000000   0.0666667   0.0000000), wk =   0.0088889
        k(   25) = (  -0.4000000   0.1333333   0.0000000), wk =   0.0088889
        k(   26) = (  -0.4000000   0.2000000   0.0000000), wk =   0.0088889
        k(   27) = (  -0.4000000   0.2666667   0.0000000), wk =   0.0088889
        k(   28) = (  -0.4000000   0.3333333   0.0000000), wk =   0.0088889
        k(   29) = (  -0.4000000   0.4000000   0.0000000), wk =   0.0088889
        k(   30) = (  -0.4000000   0.4666667   0.0000000), wk =   0.0088889
        k(   31) = (  -0.3333333  -0.4666667   0.0000000), wk =   0.0088889
        k(   32) = (  -0.3333333  -0.4000000   0.0000000), wk =   0.0088889
        k(   33) = (  -0.3333333  -0.3333333   0.0000000), wk =   0.0088889
        k(   34) = (  -0.3333333  -0.2666667   0.0000000), wk =   0.0088889
        k(   35) = (  -0.3333333  -0.2000000   0.0000000), wk =   0.0088889
        k(   36) = (  -0.3333333  -0.1333333   0.0000000), wk =   0.0088889
        k(   37) = (  -0.3333333  -0.0666667   0.0000000), wk =   0.0088889
        k(   38) = (  -0.3333333  -0.0000000   0.0000000), wk =   0.0088889
        k(   39) = (  -0.3333333   0.0666667   0.0000000), wk =   0.0088889
        k(   40) = (  -0.3333333   0.1333333   0.0000000), wk =   0.0088889
        k(   41) = (  -0.3333333   0.2000000   0.0000000), wk =   0.0088889
        k(   42) = (  -0.3333333   0.2666667   0.0000000), wk =   0.0088889
        k(   43) = (  -0.3333333   0.3333333   0.0000000), wk =   0.0088889
        k(   44) = (  -0.3333333   0.4000000   0.0000000), wk =   0.0088889
        k(   45) = (  -0.3333333   0.4666667   0.0000000), wk =   0.0088889
        k(   46) = (  -0.2666667  -0.4666667   0.0000000), wk =   0.0088889
        k(   47) = (  -0.2666667  -0.4000000   0.0000000), wk =   0.0088889
        k(   48) = (  -0.2666667  -0.3333333   0.0000000), wk =   0.0088889
        k(   49) = (  -0.2666667  -0.2666667   0.0000000), wk =   0.0088889
        k(   50) = (  -0.2666667  -0.2000000   0.0000000), wk =   0.0088889
        k(   51) = (  -0.2666667  -0.1333333   0.0000000), wk =   0.0088889
        k(   52) = (  -0.2666667  -0.0666667   0.0000000), wk =   0.0088889
        k(   53) = (  -0.2666667  -0.0000000   0.0000000), wk =   0.0088889
        k(   54) = (  -0.2666667   0.0666667   0.0000000), wk =   0.0088889
        k(   55) = (  -0.2666667   0.1333333   0.0000000), wk =   0.0088889
        k(   56) = (  -0.2666667   0.2000000   0.0000000), wk =   0.0088889
        k(   57) = (  -0.2666667   0.2666667   0.0000000), wk =   0.0088889
        k(   58) = (  -0.2666667   0.3333333   0.0000000), wk =   0.0088889
        k(   59) = (  -0.2666667   0.4000000   0.0000000), wk =   0.0088889
        k(   60) = (  -0.2666667   0.4666667   0.0000000), wk =   0.0088889
        k(   61) = (  -0.2000000  -0.4666667   0.0000000), wk =   0.0088889
        k(   62) = (  -0.2000000  -0.4000000   0.0000000), wk =   0.0088889
        k(   63) = (  -0.2000000  -0.3333333   0.0000000), wk =   0.0088889
        k(   64) = (  -0.2000000  -0.2666667   0.0000000), wk =   0.0088889
        k(   65) = (  -0.2000000  -0.2000000   0.0000000), wk =   0.0088889
        k(   66) = (  -0.2000000  -0.1333333   0.0000000), wk =   0.0088889
        k(   67) = (  -0.2000000  -0.0666667   0.0000000), wk =   0.0088889
        k(   68) = (  -0.2000000  -0.0000000   0.0000000), wk =   0.0088889
        k(   69) = (  -0.2000000   0.0666667   0.0000000), wk =   0.0088889
        k(   70) = (  -0.2000000   0.1333333   0.0000000), wk =   0.0088889
        k(   71) = (  -0.2000000   0.2000000   0.0000000), wk =   0.0088889
        k(   72) = (  -0.2000000   0.2666667   0.0000000), wk =   0.0088889
        k(   73) = (  -0.2000000   0.3333333   0.0000000), wk =   0.0088889
        k(   74) = (  -0.2000000   0.4000000   0.0000000), wk =   0.0088889
        k(   75) = (  -0.2000000   0.4666667   0.0000000), wk =   0.0088889
        k(   76) = (  -0.1333333  -0.4666667   0.0000000), wk =   0.0088889
        k(   77) = (  -0.1333333  -0.4000000   0.0000000), wk =   0.0088889
        k(   78) = (  -0.1333333  -0.3333333   0.0000000), wk =   0.0088889
        k(   79) = (  -0.1333333  -0.2666667   0.0000000), wk =   0.0088889
        k(   80) = (  -0.1333333  -0.2000000   0.0000000), wk =   0.0088889
        k(   81) = (  -0.1333333  -0.1333333   0.0000000), wk =   0.0088889
        k(   82) = (  -0.1333333  -0.0666667   0.0000000), wk =   0.0088889
        k(   83) = (  -0.1333333  -0.0000000   0.0000000), wk =   0.0088889
        k(   84) = (  -0.1333333   0.0666667   0.0000000), wk =   0.0088889
        k(   85) = (  -0.1333333   0.1333333   0.0000000), wk =   0.0088889
        k(   86) = (  -0.1333333   0.2000000   0.0000000), wk =   0.0088889
        k(   87) = (  -0.1333333   0.2666667   0.0000000), wk =   0.0088889
        k(   88) = (  -0.1333333   0.3333333   0.0000000), wk =   0.0088889
        k(   89) = (  -0.1333333   0.4000000   0.0000000), wk =   0.0088889
        k(   90) = (  -0.1333333   0.4666667   0.0000000), wk =   0.0088889
        k(   91) = (  -0.0666667  -0.4666667   0.0000000), wk =   0.0088889
        k(   92) = (  -0.0666667  -0.4000000   0.0000000), wk =   0.0088889
        k(   93) = (  -0.0666667  -0.3333333   0.0000000), wk =   0.0088889
        k(   94) = (  -0.0666667  -0.2666667   0.0000000), wk =   0.0088889
        k(   95) = (  -0.0666667  -0.2000000   0.0000000), wk =   0.0088889
        k(   96) = (  -0.0666667  -0.1333333   0.0000000), wk =   0.0088889
        k(   97) = (  -0.0666667  -0.0666667   0.0000000), wk =   0.0088889
        k(   98) = (  -0.0666667  -0.0000000   0.0000000), wk =   0.0088889
        k(   99) = (  -0.0666667   0.0666667   0.0000000), wk =   0.0088889
        k(  100) = (  -0.0666667   0.1333333   0.0000000), wk =   0.0088889
        k(  101) = (  -0.0666667   0.2000000   0.0000000), wk =   0.0088889
        k(  102) = (  -0.0666667   0.2666667   0.0000000), wk =   0.0088889
        k(  103) = (  -0.0666667   0.3333333   0.0000000), wk =   0.0088889
        k(  104) = (  -0.0666667   0.4000000   0.0000000), wk =   0.0088889
        k(  105) = (  -0.0666667   0.4666667   0.0000000), wk =   0.0088889
        k(  106) = (   0.0000000  -0.4666667   0.0000000), wk =   0.0088889
        k(  107) = (   0.0000000  -0.4000000   0.0000000), wk =   0.0088889
        k(  108) = (   0.0000000  -0.3333333   0.0000000), wk =   0.0088889
        k(  109) = (   0.0000000  -0.2666667   0.0000000), wk =   0.0088889
        k(  110) = (   0.0000000  -0.2000000   0.0000000), wk =   0.0088889
        k(  111) = (   0.0000000  -0.1333333   0.0000000), wk =   0.0088889
        k(  112) = (   0.0000000  -0.0666667   0.0000000), wk =   0.0088889
        k(  113) = (   0.0000000   0.0000000   0.0000000), wk =   0.0088889
        k(  114) = (   0.0000000   0.0666667   0.0000000), wk =   0.0088889
        k(  115) = (   0.0000000   0.1333333   0.0000000), wk =   0.0088889
        k(  116) = (   0.0000000   0.2000000   0.0000000), wk =   0.0088889
        k(  117) = (   0.0000000   0.2666667   0.0000000), wk =   0.0088889
        k(  118) = (   0.0000000   0.3333333   0.0000000), wk =   0.0088889
        k(  119) = (   0.0000000   0.4000000   0.0000000), wk =   0.0088889
        k(  120) = (   0.0000000   0.4666667   0.0000000), wk =   0.0088889
        k(  121) = (   0.0666667  -0.4666667   0.0000000), wk =   0.0088889
        k(  122) = (   0.0666667  -0.4000000   0.0000000), wk =   0.0088889
        k(  123) = (   0.0666667  -0.3333333   0.0000000), wk =   0.0088889
        k(  124) = (   0.0666667  -0.2666667   0.0000000), wk =   0.0088889
        k(  125) = (   0.0666667  -0.2000000   0.0000000), wk =   0.0088889
        k(  126) = (   0.0666667  -0.1333333   0.0000000), wk =   0.0088889
        k(  127) = (   0.0666667  -0.0666667   0.0000000), wk =   0.0088889
        k(  128) = (   0.0666667   0.0000000   0.0000000), wk =   0.0088889
        k(  129) = (   0.0666667   0.0666667   0.0000000), wk =   0.0088889
        k(  130) = (   0.0666667   0.1333333   0.0000000), wk =   0.0088889
        k(  131) = (   0.0666667   0.2000000   0.0000000), wk =   0.0088889
        k(  132) = (   0.0666667   0.2666667   0.0000000), wk =   0.0088889
        k(  133) = (   0.0666667   0.3333333   0.0000000), wk =   0.0088889
        k(  134) = (   0.0666667   0.4000000   0.0000000), wk =   0.0088889
        k(  135) = (   0.0666667   0.4666667   0.0000000), wk =   0.0088889
        k(  136) = (   0.1333333  -0.4666667   0.0000000), wk =   0.0088889
        k(  137) = (   0.1333333  -0.4000000   0.0000000), wk =   0.0088889
        k(  138) = (   0.1333333  -0.3333333   0.0000000), wk =   0.0088889
        k(  139) = (   0.1333333  -0.2666667   0.0000000), wk =   0.0088889
        k(  140) = (   0.1333333  -0.2000000   0.0000000), wk =   0.0088889
        k(  141) = (   0.1333333  -0.1333333   0.0000000), wk =   0.0088889
        k(  142) = (   0.1333333  -0.0666667   0.0000000), wk =   0.0088889
        k(  143) = (   0.1333333   0.0000000   0.0000000), wk =   0.0088889
        k(  144) = (   0.1333333   0.0666667   0.0000000), wk =   0.0088889
        k(  145) = (   0.1333333   0.1333333   0.0000000), wk =   0.0088889
        k(  146) = (   0.1333333   0.2000000   0.0000000), wk =   0.0088889
        k(  147) = (   0.1333333   0.2666667   0.0000000), wk =   0.0088889
        k(  148) = (   0.1333333   0.3333333   0.0000000), wk =   0.0088889
        k(  149) = (   0.1333333   0.4000000   0.0000000), wk =   0.0088889
        k(  150) = (   0.1333333   0.4666667   0.0000000), wk =   0.0088889
        k(  151) = (   0.2000000  -0.4666667   0.0000000), wk =   0.0088889
        k(  152) = (   0.2000000  -0.4000000   0.0000000), wk =   0.0088889
        k(  153) = (   0.2000000  -0.3333333   0.0000000), wk =   0.0088889
        k(  154) = (   0.2000000  -0.2666667   0.0000000), wk =   0.0088889
        k(  155) = (   0.2000000  -0.2000000   0.0000000), wk =   0.0088889
        k(  156) = (   0.2000000  -0.1333333   0.0000000), wk =   0.0088889
        k(  157) = (   0.2000000  -0.0666667   0.0000000), wk =   0.0088889
        k(  158) = (   0.2000000   0.0000000   0.0000000), wk =   0.0088889
        k(  159) = (   0.2000000   0.0666667   0.0000000), wk =   0.0088889
        k(  160) = (   0.2000000   0.1333333   0.0000000), wk =   0.0088889
        k(  161) = (   0.2000000   0.2000000   0.0000000), wk =   0.0088889
        k(  162) = (   0.2000000   0.2666667   0.0000000), wk =   0.0088889
        k(  163) = (   0.2000000   0.3333333   0.0000000), wk =   0.0088889
        k(  164) = (   0.2000000   0.4000000   0.0000000), wk =   0.0088889
        k(  165) = (   0.2000000   0.4666667   0.0000000), wk =   0.0088889
        k(  166) = (   0.2666667  -0.4666667   0.0000000), wk =   0.0088889
        k(  167) = (   0.2666667  -0.4000000   0.0000000), wk =   0.0088889
        k(  168) = (   0.2666667  -0.3333333   0.0000000), wk =   0.0088889
        k(  169) = (   0.2666667  -0.2666667   0.0000000), wk =   0.0088889
        k(  170) = (   0.2666667  -0.2000000   0.0000000), wk =   0.0088889
        k(  171) = (   0.2666667  -0.1333333   0.0000000), wk =   0.0088889
        k(  172) = (   0.2666667  -0.0666667   0.0000000), wk =   0.0088889
        k(  173) = (   0.2666667   0.0000000   0.0000000), wk =   0.0088889
        k(  174) = (   0.2666667   0.0666667   0.0000000), wk =   0.0088889
        k(  175) = (   0.2666667   0.1333333   0.0000000), wk =   0.0088889
        k(  176) = (   0.2666667   0.2000000   0.0000000), wk =   0.0088889
        k(  177) = (   0.2666667   0.2666667   0.0000000), wk =   0.0088889
        k(  178) = (   0.2666667   0.3333333   0.0000000), wk =   0.0088889
        k(  179) = (   0.2666667   0.4000000   0.0000000), wk =   0.0088889
        k(  180) = (   0.2666667   0.4666667   0.0000000), wk =   0.0088889
        k(  181) = (   0.3333333  -0.4666667   0.0000000), wk =   0.0088889
        k(  182) = (   0.3333333  -0.4000000   0.0000000), wk =   0.0088889
        k(  183) = (   0.3333333  -0.3333333   0.0000000), wk =   0.0088889
        k(  184) = (   0.3333333  -0.2666667   0.0000000), wk =   0.0088889
        k(  185) = (   0.3333333  -0.2000000   0.0000000), wk =   0.0088889
        k(  186) = (   0.3333333  -0.1333333   0.0000000), wk =   0.0088889
        k(  187) = (   0.3333333  -0.0666667   0.0000000), wk =   0.0088889
        k(  188) = (   0.3333333   0.0000000   0.0000000), wk =   0.0088889
        k(  189) = (   0.3333333   0.0666667   0.0000000), wk =   0.0088889
        k(  190) = (   0.3333333   0.1333333   0.0000000), wk =   0.0088889
        k(  191) = (   0.3333333   0.2000000   0.0000000), wk =   0.0088889
        k(  192) = (   0.3333333   0.2666667   0.0000000), wk =   0.0088889
        k(  193) = (   0.3333333   0.3333333   0.0000000), wk =   0.0088889
        k(  194) = (   0.3333333   0.4000000   0.0000000), wk =   0.0088889
        k(  195) = (   0.3333333   0.4666667   0.0000000), wk =   0.0088889
        k(  196) = (   0.4000000  -0.4666667   0.0000000), wk =   0.0088889
        k(  197) = (   0.4000000  -0.4000000   0.0000000), wk =   0.0088889
        k(  198) = (   0.4000000  -0.3333333   0.0000000), wk =   0.0088889
        k(  199) = (   0.4000000  -0.2666667   0.0000000), wk =   0.0088889
        k(  200) = (   0.4000000  -0.2000000   0.0000000), wk =   0.0088889
        k(  201) = (   0.4000000  -0.1333333   0.0000000), wk =   0.0088889
        k(  202) = (   0.4000000  -0.0666667   0.0000000), wk =   0.0088889
        k(  203) = (   0.4000000   0.0000000   0.0000000), wk =   0.0088889
        k(  204) = (   0.4000000   0.0666667   0.0000000), wk =   0.0088889
        k(  205) = (   0.4000000   0.1333333   0.0000000), wk =   0.0088889
        k(  206) = (   0.4000000   0.2000000   0.0000000), wk =   0.0088889
        k(  207) = (   0.4000000   0.2666667   0.0000000), wk =   0.0088889
        k(  208) = (   0.4000000   0.3333333   0.0000000), wk =   0.0088889
        k(  209) = (   0.4000000   0.4000000   0.0000000), wk =   0.0088889
        k(  210) = (   0.4000000   0.4666667   0.0000000), wk =   0.0088889
        k(  211) = (   0.4666667  -0.4666667   0.0000000), wk =   0.0088889
        k(  212) = (   0.4666667  -0.4000000   0.0000000), wk =   0.0088889
        k(  213) = (   0.4666667  -0.3333333   0.0000000), wk =   0.0088889
        k(  214) = (   0.4666667  -0.2666667   0.0000000), wk =   0.0088889
        k(  215) = (   0.4666667  -0.2000000   0.0000000), wk =   0.0088889
        k(  216) = (   0.4666667  -0.1333333   0.0000000), wk =   0.0088889
        k(  217) = (   0.4666667  -0.0666667   0.0000000), wk =   0.0088889
        k(  218) = (   0.4666667   0.0000000   0.0000000), wk =   0.0088889
        k(  219) = (   0.4666667   0.0666667   0.0000000), wk =   0.0088889
        k(  220) = (   0.4666667   0.1333333   0.0000000), wk =   0.0088889
        k(  221) = (   0.4666667   0.2000000   0.0000000), wk =   0.0088889
        k(  222) = (   0.4666667   0.2666667   0.0000000), wk =   0.0088889
        k(  223) = (   0.4666667   0.3333333   0.0000000), wk =   0.0088889
        k(  224) = (   0.4666667   0.4000000   0.0000000), wk =   0.0088889
        k(  225) = (   0.4666667   0.4666667   0.0000000), wk =   0.0088889

     Dense  grid:    95223 G-vectors     FFT dimensions: (  25,  25, 324)

     Dynamical RAM for                 wfc:       0.16 MB

     Dynamical RAM for     wfc (w. buffer):       0.16 MB

     Dynamical RAM for           str. fact:       0.07 MB

     Dynamical RAM for           local pot:       0.00 MB

     Dynamical RAM for          nlocal pot:       0.29 MB

     Dynamical RAM for                qrad:       2.27 MB

     Dynamical RAM for          rho,v,vnew:       0.22 MB

     Dynamical RAM for           G-vectors:       0.15 MB

     Dynamical RAM for          h,s,v(r/c):       0.24 MB

     Dynamical RAM for          <psi|beta>:       0.04 MB

     Dynamical RAM for                 psi:       0.31 MB

     Dynamical RAM for                hpsi:       0.31 MB

     Dynamical RAM for      wfcinit/wfcrot:       0.34 MB

     Estimated static dynamical RAM per process >       3.45 MB

     Estimated max dynamical RAM per process >       4.34 MB

     Estimated total dynamical RAM >     182.37 MB

     Atomic positions and unit cell read from directory:
     ./calc.save/


     The potential is recalculated from file :
     ./calc.save/charge-density

     Starting wfcs are random

     Band Structure Calculation
     Davidson diagonalization with overlap

     Computing kpt #:     1  of   225
     total cpu time spent up to now is        2.8 secs

     Computing kpt #:     2  of   225
     total cpu time spent up to now is        4.7 secs

     Computing kpt #:     3  of   225
     total cpu time spent up to now is        6.7 secs

     Computing kpt #:     4  of   225
     total cpu time spent up to now is        8.7 secs

     Computing kpt #:     5  of   225
     total cpu time spent up to now is       10.6 secs

     Computing kpt #:     6  of   225
     total cpu time spent up to now is       12.5 secs

     Computing kpt #:     7  of   225
     total cpu time spent up to now is       14.4 secs

     Computing kpt #:     8  of   225
     total cpu time spent up to now is       16.4 secs

     Computing kpt #:     9  of   225
     total cpu time spent up to now is       18.6 secs

     Computing kpt #:    10  of   225
     total cpu time spent up to now is       20.7 secs

     Computing kpt #:    11  of   225
     total cpu time spent up to now is       22.9 secs

     Computing kpt #:    12  of   225
     total cpu time spent up to now is       25.2 secs

     Computing kpt #:    13  of   225
     total cpu time spent up to now is       27.5 secs

     Computing kpt #:    14  of   225
     total cpu time spent up to now is       29.4 secs

     Computing kpt #:    15  of   225
     total cpu time spent up to now is       31.4 secs

     Computing kpt #:    16  of   225
     total cpu time spent up to now is       33.3 secs

     Computing kpt #:    17  of   225
     total cpu time spent up to now is       35.2 secs

     Computing kpt #:    18  of   225
     total cpu time spent up to now is       37.4 secs

     Computing kpt #:    19  of   225
     total cpu time spent up to now is       39.2 secs

     Computing kpt #:    20  of   225
     total cpu time spent up to now is       41.1 secs

     Computing kpt #:    21  of   225
     total cpu time spent up to now is       42.9 secs

     Computing kpt #:    22  of   225
     total cpu time spent up to now is       45.0 secs

     Computing kpt #:    23  of   225
     total cpu time spent up to now is       47.4 secs

     Computing kpt #:    24  of   225
     total cpu time spent up to now is       49.6 secs

     Computing kpt #:    25  of   225
     total cpu time spent up to now is       51.6 secs

     Computing kpt #:    26  of   225
     total cpu time spent up to now is       53.7 secs

     Computing kpt #:    27  of   225
     total cpu time spent up to now is       55.7 secs

     Computing kpt #:    28  of   225
     total cpu time spent up to now is       58.3 secs

     Computing kpt #:    29  of   225
     total cpu time spent up to now is       60.4 secs

     Computing kpt #:    30  of   225
     total cpu time spent up to now is       62.6 secs

     Computing kpt #:    31  of   225
     total cpu time spent up to now is       64.5 secs

     Computing kpt #:    32  of   225
     total cpu time spent up to now is       66.6 secs

     Computing kpt #:    33  of   225
     total cpu time spent up to now is       68.7 secs

     Computing kpt #:    34  of   225
     total cpu time spent up to now is       70.9 secs

     Computing kpt #:    35  of   225
     total cpu time spent up to now is       72.9 secs

     Computing kpt #:    36  of   225
     total cpu time spent up to now is       75.2 secs

     Computing kpt #:    37  of   225
     total cpu time spent up to now is       77.5 secs

     Computing kpt #:    38  of   225
     total cpu time spent up to now is       80.0 secs

     Computing kpt #:    39  of   225
     total cpu time spent up to now is       82.0 secs

     Computing kpt #:    40  of   225
     total cpu time spent up to now is       84.0 secs

     Computing kpt #:    41  of   225
     total cpu time spent up to now is       86.0 secs

     Computing kpt #:    42  of   225
     total cpu time spent up to now is       87.9 secs

     Computing kpt #:    43  of   225
     total cpu time spent up to now is       90.0 secs

     Computing kpt #:    44  of   225
     total cpu time spent up to now is       92.2 secs

     Computing kpt #:    45  of   225
     total cpu time spent up to now is       94.4 secs

     Computing kpt #:    46  of   225
     total cpu time spent up to now is       96.4 secs

     Computing kpt #:    47  of   225
     total cpu time spent up to now is       98.4 secs

     Computing kpt #:    48  of   225
     total cpu time spent up to now is      100.5 secs

     Computing kpt #:    49  of   225
     total cpu time spent up to now is      102.5 secs

     Computing kpt #:    50  of   225
     total cpu time spent up to now is      104.6 secs

     Computing kpt #:    51  of   225
     total cpu time spent up to now is      106.8 secs

     Computing kpt #:    52  of   225
     total cpu time spent up to now is      108.7 secs

     Computing kpt #:    53  of   225
     total cpu time spent up to now is      110.6 secs

     Computing kpt #:    54  of   225
     total cpu time spent up to now is      112.5 secs

     Computing kpt #:    55  of   225
     total cpu time spent up to now is      114.6 secs

     Computing kpt #:    56  of   225
     total cpu time spent up to now is      116.6 secs

     Computing kpt #:    57  of   225
     total cpu time spent up to now is      118.5 secs

     Computing kpt #:    58  of   225
     total cpu time spent up to now is      120.4 secs

     Computing kpt #:    59  of   225
     total cpu time spent up to now is      122.5 secs

     Computing kpt #:    60  of   225
     total cpu time spent up to now is      124.7 secs

     Computing kpt #:    61  of   225
     total cpu time spent up to now is      126.6 secs

     Computing kpt #:    62  of   225
     total cpu time spent up to now is      128.4 secs

     Computing kpt #:    63  of   225
     total cpu time spent up to now is      130.2 secs

     Computing kpt #:    64  of   225
     total cpu time spent up to now is      132.4 secs

     Computing kpt #:    65  of   225
     total cpu time spent up to now is      134.4 secs

     Computing kpt #:    66  of   225
     total cpu time spent up to now is      136.3 secs

     Computing kpt #:    67  of   225
     total cpu time spent up to now is      138.3 secs

     Computing kpt #:    68  of   225
     total cpu time spent up to now is      140.4 secs

     Computing kpt #:    69  of   225
     total cpu time spent up to now is      142.4 secs

     Computing kpt #:    70  of   225
     total cpu time spent up to now is      144.4 secs

     Computing kpt #:    71  of   225
     total cpu time spent up to now is      146.5 secs

     Computing kpt #:    72  of   225
     total cpu time spent up to now is      148.4 secs

     Computing kpt #:    73  of   225
     total cpu time spent up to now is      150.3 secs

     Computing kpt #:    74  of   225
     total cpu time spent up to now is      152.1 secs

     Computing kpt #:    75  of   225
     total cpu time spent up to now is      154.4 secs

     Computing kpt #:    76  of   225
     total cpu time spent up to now is      156.2 secs

     Computing kpt #:    77  of   225
     total cpu time spent up to now is      158.0 secs

     Computing kpt #:    78  of   225
     total cpu time spent up to now is      160.2 secs

     Computing kpt #:    79  of   225
     total cpu time spent up to now is      162.2 secs

     Computing kpt #:    80  of   225
     total cpu time spent up to now is      164.1 secs

     Computing kpt #:    81  of   225
     total cpu time spent up to now is      166.0 secs

     Computing kpt #:    82  of   225
     total cpu time spent up to now is      168.0 secs

     Computing kpt #:    83  of   225
     total cpu time spent up to now is      170.0 secs

     Computing kpt #:    84  of   225
     total cpu time spent up to now is      172.0 secs

     Computing kpt #:    85  of   225
     total cpu time spent up to now is      174.0 secs

     Computing kpt #:    86  of   225
     total cpu time spent up to now is      175.9 secs

     Computing kpt #:    87  of   225
     total cpu time spent up to now is      177.7 secs

     Computing kpt #:    88  of   225
     total cpu time spent up to now is      179.8 secs

     Computing kpt #:    89  of   225
     total cpu time spent up to now is      181.9 secs

     Computing kpt #:    90  of   225
     total cpu time spent up to now is      184.0 secs

     Computing kpt #:    91  of   225
     total cpu time spent up to now is      185.8 secs

     Computing kpt #:    92  of   225
     total cpu time spent up to now is      187.9 secs

     Computing kpt #:    93  of   225
     total cpu time spent up to now is      190.1 secs

     Computing kpt #:    94  of   225
     total cpu time spent up to now is      192.1 secs

     Computing kpt #:    95  of   225
     total cpu time spent up to now is      194.1 secs

     Computing kpt #:    96  of   225
     total cpu time spent up to now is      196.0 secs

     Computing kpt #:    97  of   225
     total cpu time spent up to now is      198.0 secs

     Computing kpt #:    98  of   225
     total cpu time spent up to now is      199.8 secs

     Computing kpt #:    99  of   225
     total cpu time spent up to now is      201.7 secs

     Computing kpt #:   100  of   225
     total cpu time spent up to now is      203.7 secs

     Computing kpt #:   101  of   225
     total cpu time spent up to now is      205.6 secs

     Computing kpt #:   102  of   225
     total cpu time spent up to now is      207.5 secs

     Computing kpt #:   103  of   225
     total cpu time spent up to now is      209.4 secs

     Computing kpt #:   104  of   225
     total cpu time spent up to now is      211.9 secs

     Computing kpt #:   105  of   225
     total cpu time spent up to now is      214.1 secs

     Computing kpt #:   106  of   225
     total cpu time spent up to now is      216.0 secs

     Computing kpt #:   107  of   225
     total cpu time spent up to now is      218.3 secs

     Computing kpt #:   108  of   225
     total cpu time spent up to now is      220.4 secs

     Computing kpt #:   109  of   225
     total cpu time spent up to now is      222.3 secs

     Computing kpt #:   110  of   225
     total cpu time spent up to now is      224.3 secs

     Computing kpt #:   111  of   225
     total cpu time spent up to now is      226.2 secs

     Computing kpt #:   112  of   225
     total cpu time spent up to now is      228.3 secs

     Computing kpt #:   113  of   225
     total cpu time spent up to now is      230.2 secs

     Computing kpt #:   114  of   225
     total cpu time spent up to now is      232.2 secs

     Computing kpt #:   115  of   225
     total cpu time spent up to now is      234.2 secs

     Computing kpt #:   116  of   225
     total cpu time spent up to now is      236.2 secs

     Computing kpt #:   117  of   225
     total cpu time spent up to now is      238.2 secs

     Computing kpt #:   118  of   225
     total cpu time spent up to now is      240.2 secs

     Computing kpt #:   119  of   225
     total cpu time spent up to now is      242.5 secs

     Computing kpt #:   120  of   225
     total cpu time spent up to now is      244.5 secs

     Computing kpt #:   121  of   225
     total cpu time spent up to now is      246.4 secs

     Computing kpt #:   122  of   225
     total cpu time spent up to now is      248.7 secs

     Computing kpt #:   123  of   225
     total cpu time spent up to now is      250.7 secs

     Computing kpt #:   124  of   225
     total cpu time spent up to now is      252.7 secs

     Computing kpt #:   125  of   225
     total cpu time spent up to now is      254.7 secs

     Computing kpt #:   126  of   225
     total cpu time spent up to now is      256.6 secs

     Computing kpt #:   127  of   225
     total cpu time spent up to now is      258.8 secs

     Computing kpt #:   128  of   225
     total cpu time spent up to now is      260.9 secs

     Computing kpt #:   129  of   225
     total cpu time spent up to now is      262.8 secs

     Computing kpt #:   130  of   225
     total cpu time spent up to now is      264.7 secs

     Computing kpt #:   131  of   225
     total cpu time spent up to now is      266.7 secs

     Computing kpt #:   132  of   225
     total cpu time spent up to now is      268.5 secs

     Computing kpt #:   133  of   225
     total cpu time spent up to now is      271.0 secs

     Computing kpt #:   134  of   225
     total cpu time spent up to now is      273.0 secs

     Computing kpt #:   135  of   225
     total cpu time spent up to now is      274.9 secs

     Computing kpt #:   136  of   225
     total cpu time spent up to now is      277.0 secs

     Computing kpt #:   137  of   225
     total cpu time spent up to now is      279.0 secs

     Computing kpt #:   138  of   225
     total cpu time spent up to now is      280.9 secs

     Computing kpt #:   139  of   225
     total cpu time spent up to now is      282.9 secs

     Computing kpt #:   140  of   225
     total cpu time spent up to now is      284.9 secs

     Computing kpt #:   141  of   225
     total cpu time spent up to now is      286.9 secs

     Computing kpt #:   142  of   225
     total cpu time spent up to now is      288.8 secs

     Computing kpt #:   143  of   225
     total cpu time spent up to now is      290.8 secs

     Computing kpt #:   144  of   225
     total cpu time spent up to now is      292.9 secs

     Computing kpt #:   145  of   225
     total cpu time spent up to now is      294.8 secs

     Computing kpt #:   146  of   225
     total cpu time spent up to now is      296.8 secs

     Computing kpt #:   147  of   225
     total cpu time spent up to now is      298.9 secs

     Computing kpt #:   148  of   225
     total cpu time spent up to now is      301.0 secs

     Computing kpt #:   149  of   225
     total cpu time spent up to now is      302.9 secs

     Computing kpt #:   150  of   225
     total cpu time spent up to now is      304.9 secs

     Computing kpt #:   151  of   225
     total cpu time spent up to now is      307.1 secs

     Computing kpt #:   152  of   225
     total cpu time spent up to now is      309.2 secs

     Computing kpt #:   153  of   225
     total cpu time spent up to now is      311.2 secs

     Computing kpt #:   154  of   225
     total cpu time spent up to now is      313.1 secs

     Computing kpt #:   155  of   225
     total cpu time spent up to now is      315.1 secs

     Computing kpt #:   156  of   225
     total cpu time spent up to now is      317.1 secs

     Computing kpt #:   157  of   225
     total cpu time spent up to now is      319.1 secs

     Computing kpt #:   158  of   225
     total cpu time spent up to now is      321.1 secs

     Computing kpt #:   159  of   225
     total cpu time spent up to now is      322.9 secs

     Computing kpt #:   160  of   225
     total cpu time spent up to now is      324.8 secs

     Computing kpt #:   161  of   225
     total cpu time spent up to now is      326.7 secs

     Computing kpt #:   162  of   225
     total cpu time spent up to now is      328.9 secs

     Computing kpt #:   163  of   225
     total cpu time spent up to now is      330.9 secs

     Computing kpt #:   164  of   225
     total cpu time spent up to now is      332.8 secs

     Computing kpt #:   165  of   225
     total cpu time spent up to now is      334.7 secs

     Computing kpt #:   166  of   225
     total cpu time spent up to now is      337.0 secs

     Computing kpt #:   167  of   225
     total cpu time spent up to now is      339.1 secs

     Computing kpt #:   168  of   225
     total cpu time spent up to now is      341.0 secs

     Computing kpt #:   169  of   225
     total cpu time spent up to now is      343.0 secs

     Computing kpt #:   170  of   225
     total cpu time spent up to now is      345.0 secs

     Computing kpt #:   171  of   225
     total cpu time spent up to now is      347.0 secs

     Computing kpt #:   172  of   225
     total cpu time spent up to now is      348.9 secs

     Computing kpt #:   173  of   225
     total cpu time spent up to now is      350.8 secs

     Computing kpt #:   174  of   225
     total cpu time spent up to now is      352.8 secs

     Computing kpt #:   175  of   225
     total cpu time spent up to now is      354.8 secs

     Computing kpt #:   176  of   225
     total cpu time spent up to now is      357.0 secs

     Computing kpt #:   177  of   225
     total cpu time spent up to now is      359.1 secs

     Computing kpt #:   178  of   225
     total cpu time spent up to now is      361.2 secs

     Computing kpt #:   179  of   225
     total cpu time spent up to now is      363.4 secs

     Computing kpt #:   180  of   225
     total cpu time spent up to now is      365.3 secs

     Computing kpt #:   181  of   225
     total cpu time spent up to now is      367.5 secs

     Computing kpt #:   182  of   225
     total cpu time spent up to now is      369.9 secs

     Computing kpt #:   183  of   225
     total cpu time spent up to now is      372.0 secs

     Computing kpt #:   184  of   225
     total cpu time spent up to now is      373.9 secs

     Computing kpt #:   185  of   225
     total cpu time spent up to now is      375.9 secs

     Computing kpt #:   186  of   225
     total cpu time spent up to now is      377.8 secs

     Computing kpt #:   187  of   225
     total cpu time spent up to now is      379.9 secs

     Computing kpt #:   188  of   225
     total cpu time spent up to now is      382.0 secs

     Computing kpt #:   189  of   225
     total cpu time spent up to now is      384.5 secs

     Computing kpt #:   190  of   225
     total cpu time spent up to now is      386.7 secs

     Computing kpt #:   191  of   225
     total cpu time spent up to now is      388.5 secs

     Computing kpt #:   192  of   225
     total cpu time spent up to now is      390.4 secs

     Computing kpt #:   193  of   225
     total cpu time spent up to now is      392.7 secs

     Computing kpt #:   194  of   225
     total cpu time spent up to now is      394.7 secs

     Computing kpt #:   195  of   225
     total cpu time spent up to now is      396.6 secs

     Computing kpt #:   196  of   225
     total cpu time spent up to now is      398.7 secs

     Computing kpt #:   197  of   225
     total cpu time spent up to now is      400.9 secs

     Computing kpt #:   198  of   225
     total cpu time spent up to now is      403.3 secs

     Computing kpt #:   199  of   225
     total cpu time spent up to now is      405.4 secs

     Computing kpt #:   200  of   225
     total cpu time spent up to now is      407.5 secs

     Computing kpt #:   201  of   225
     total cpu time spent up to now is      409.6 secs

     Computing kpt #:   202  of   225
     total cpu time spent up to now is      412.0 secs

     Computing kpt #:   203  of   225
     total cpu time spent up to now is      414.2 secs

     Computing kpt #:   204  of   225
     total cpu time spent up to now is      416.4 secs

     Computing kpt #:   205  of   225
     total cpu time spent up to now is      418.2 secs

     Computing kpt #:   206  of   225
     total cpu time spent up to now is      420.1 secs

     Computing kpt #:   207  of   225
     total cpu time spent up to now is      422.2 secs

     Computing kpt #:   208  of   225
     total cpu time spent up to now is      424.2 secs

     Computing kpt #:   209  of   225
     total cpu time spent up to now is      426.1 secs

     Computing kpt #:   210  of   225
     total cpu time spent up to now is      427.9 secs

     Computing kpt #:   211  of   225
     total cpu time spent up to now is      429.8 secs

     Computing kpt #:   212  of   225
     total cpu time spent up to now is      431.9 secs

     Computing kpt #:   213  of   225
     total cpu time spent up to now is      434.0 secs

     Computing kpt #:   214  of   225
     total cpu time spent up to now is      436.3 secs

     Computing kpt #:   215  of   225
     total cpu time spent up to now is      438.4 secs

     Computing kpt #:   216  of   225
     total cpu time spent up to now is      440.5 secs

     Computing kpt #:   217  of   225
     total cpu time spent up to now is      442.4 secs

     Computing kpt #:   218  of   225
     total cpu time spent up to now is      444.5 secs

     Computing kpt #:   219  of   225
     total cpu time spent up to now is      446.3 secs

     Computing kpt #:   220  of   225
     total cpu time spent up to now is      448.1 secs

     Computing kpt #:   221  of   225
     total cpu time spent up to now is      450.1 secs

     Computing kpt #:   222  of   225
     total cpu time spent up to now is      452.0 secs

     Computing kpt #:   223  of   225
     total cpu time spent up to now is      453.9 secs

     Computing kpt #:   224  of   225
     total cpu time spent up to now is      455.7 secs

     Computing kpt #:   225  of   225
     total cpu time spent up to now is      457.6 secs

     ethr =  1.41E-10,  avg # of iterations = 58.5

     total cpu time spent up to now is      457.6 secs

     End of band structure calculation

          k =-0.1555-0.2693 0.0000 ( 11882 PWs)   bands (ev):

   -60.5576 -60.5189 -35.1399 -35.1019 -34.8032 -34.7639 -34.6502 -34.6122
   -12.3329 -12.2696 -12.1978 -12.1492  -6.4019  -6.3256  -5.5593  -5.4605
    -4.5007  -4.3466  -3.2682  -3.2181  -2.3963  -2.1464  -1.1975  -1.1473
    -0.3726  -0.3070   2.9242   2.9593   3.3320   3.4556   4.1831   4.4118
     4.4419   4.6180   6.6282   7.0091

     occupation numbers 
     1.0000   1.0000   1.0000   1.0000   1.0000   1.0000   1.0000   1.0000
     1.0000   1.0000   1.0000   1.0000   1.0000   1.0000   1.0000   1.0000
     1.0000   1.0000   1.0000   1.0000   1.0000   1.0000   1.0000   1.0000
     1.0000   1.0000   0.0000   0.0000   0.0000   0.0000   0.0000   0.0000
     0.0000   0.0000   0.0000   0.0000

          k =-0.1555-0.2436 0.0000 ( 11849 PWs)   bands (ev):

   -60.5560 -60.5173 -35.1079 -35.0699 -34.8004 -34.7611 -34.7003 -34.6623
   -12.2902 -12.2260 -12.1503 -12.0994  -6.1629  -6.0844  -5.6168  -5.5451
    -4.3766  -4.2183  -3.4609  -3.3483  -2.2829  -2.1082  -2.0029  -1.8971
    -0.3166  -0.2372   2.7045   2.8576   3.5081   3.6183   3.7793   3.9556
     4.6608   4.8752   6.8385   7.2986

     occupation numbers 
     1.0000   1.0000   1.0000   1.0000   1.0000   1.0000   1.0000   1.0000
     1.0000   1.0000   1.0000   1.0000   1.0000   1.0000   1.0000   1.0000
     1.0000   1.0000   1.0000   1.0000   1.0000   1.0000   1.0000   1.0000
     1.0000   1.0000   0.0000   0.0000   0.0000   0.0000   0.0000   0.0000
     0.0000   0.0000   0.0000   0.0000

          k =-0.1555-0.2180 0.0000 ( 11853 PWs)   bands (ev):

   -60.5550 -60.5163 -35.0588 -35.0209 -34.7986 -34.7627 -34.7592 -34.7247
   -12.2582 -12.1895 -12.1249 -12.0715  -5.8342  -5.7382  -5.6604  -5.6160
    -4.1525  -3.9950  -3.6310  -3.4321  -2.8769  -2.7393  -2.1381  -2.0328
    -0.3290  -0.2714   2.4388   2.7096   3.2815   3.3744   3.6875   3.7676
     5.1232   5.3008   7.2832   7.7689

     occupation numbers 
     1.0000   1.0000   1.0000   1.0000   1.0000   1.0000   1.0000   1.0000
     1.0000   1.0000   1.0000   1.0000   1.0000   1.0000   1.0000   1.0000
     1.0000   1.0000   1.0000   1.0000   1.0000   1.0000   1.0000   1.0000
     1.0000   1.0000   0.0000   0.0000   0.0000   0.0000   0.0000   0.0000
     0.0000   0.0000   0.0000   0.0000

          k =-0.1555-0.1923 0.0000 ( 11844 PWs)   bands (ev):

   -60.5546 -60.5159 -35.0299 -34.9920 -34.7979 -34.7965 -34.7586 -34.7586
   -12.2464 -12.1754 -12.1171 -12.0629  -5.7044  -5.6605  -5.6269  -5.5426
    -3.8955  -3.8097  -3.6505  -3.4614  -3.3436  -3.3107  -2.0811  -1.9991
    -0.3433  -0.2966   2.3237   2.6345   3.1150   3.1662   3.7308   3.8122
     5.3268   5.4855   7.7675   7.8693

     occupation numbers 
     1.0000   1.0000   1.0000   1.0000   1.0000   1.0000   1.0000   1.0000
     1.0000   1.0000   1.0000   1.0000   1.0000   1.0000   1.0000   1.0000
     1.0000   1.0000   1.0000   1.0000   1.0000   1.0000   1.0000   1.0000
     1.0000   1.0000   0.0000   0.0000   0.0000   0.0000   0.0000   0.0000
     0.0000   0.0000   0.0000   0.0000

          k =-0.1555-0.1667 0.0000 ( 11853 PWs)   bands (ev):

   -60.5550 -60.5163 -35.0588 -35.0209 -34.7986 -34.7627 -34.7592 -34.7247
   -12.2582 -12.1895 -12.1249 -12.0715  -5.8342  -5.7382  -5.6604  -5.6160
    -4.1525  -3.9950  -3.6310  -3.4321  -2.8769  -2.7393  -2.1381  -2.0328
    -0.3290  -0.2714   2.4388   2.7096   3.2815   3.3744   3.6875   3.7676
     5.1232   5.3008   7.2832   7.7689

     occupation numbers 
     1.0000   1.0000   1.0000   1.0000   1.0000   1.0000   1.0000   1.0000
     1.0000   1.0000   1.0000   1.0000   1.0000   1.0000   1.0000   1.0000
     1.0000   1.0000   1.0000   1.0000   1.0000   1.0000   1.0000   1.0000
     1.0000   1.0000   0.0000   0.0000   0.0000   0.0000   0.0000   0.0000
     0.0000   0.0000   0.0000   0.0000

          k =-0.1555-0.1410 0.0000 ( 11849 PWs)   bands (ev):

   -60.5560 -60.5173 -35.1079 -35.0699 -34.8004 -34.7611 -34.7003 -34.6623
   -12.2902 -12.2260 -12.1503 -12.0994  -6.1629  -6.0844  -5.6168  -5.5451
    -4.3766  -4.2183  -3.4609  -3.3483  -2.2829  -2.1082  -2.0029  -1.8971
    -0.3166  -0.2372   2.7045   2.8576   3.5081   3.6183   3.7793   3.9556
     4.6608   4.8752   6.8385   7.2986

     occupation numbers 
     1.0000   1.0000   1.0000   1.0000   1.0000   1.0000   1.0000   1.0000
     1.0000   1.0000   1.0000   1.0000   1.0000   1.0000   1.0000   1.0000
     1.0000   1.0000   1.0000   1.0000   1.0000   1.0000   1.0000   1.0000
     1.0000   1.0000   0.0000   0.0000   0.0000   0.0000   0.0000   0.0000
     0.0000   0.0000   0.0000   0.0000

          k =-0.1555-0.1154 0.0000 ( 11882 PWs)   bands (ev):

   -60.5576 -60.5189 -35.1399 -35.1019 -34.8032 -34.7639 -34.6502 -34.6122
   -12.3329 -12.2696 -12.1978 -12.1492  -6.4019  -6.3256  -5.5593  -5.4605
    -4.5007  -4.3466  -3.2682  -3.2181  -2.3963  -2.1464  -1.1975  -1.1473
    -0.3726  -0.3070   2.9242   2.9593   3.3320   3.4556   4.1831   4.4118
     4.4419   4.6180   6.6282   7.0091

     occupation numbers 
     1.0000   1.0000   1.0000   1.0000   1.0000   1.0000   1.0000   1.0000
     1.0000   1.0000   1.0000   1.0000   1.0000   1.0000   1.0000   1.0000
     1.0000   1.0000   1.0000   1.0000   1.0000   1.0000   1.0000   1.0000
     1.0000   1.0000   0.0000   0.0000   0.0000   0.0000   0.0000   0.0000
     0.0000   0.0000   0.0000   0.0000

          k =-0.1555-0.0898 0.0000 ( 11911 PWs)   bands (ev):

   -60.5594 -60.5207 -35.1419 -35.1040 -34.8065 -34.7672 -34.6297 -34.5918
   -12.3770 -12.3081 -12.2630 -12.2173  -6.4366  -6.3593  -5.5006  -5.3862
    -4.5144  -4.3607  -3.1581  -3.1094  -2.4507  -2.1551  -0.8155  -0.6722
    -0.5877  -0.4929   2.9683   3.0101   3.1280   3.3121   4.0254   4.2931
     4.7063   4.9071   6.6656   7.0629

     occupation numbers 
     1.0000   1.0000   1.0000   1.0000   1.0000   1.0000   1.0000   1.0000
     1.0000   1.0000   1.0000   1.0000   1.0000   1.0000   1.0000   1.0000
     1.0000   1.0000   1.0000   1.0000   1.0000   1.0000   1.0000   1.0000
     1.0000   1.0000   0.0000   0.0000   0.0000   0.0000   0.0000   0.0000
     0.0000   0.0000   0.0000   0.0000

          k =-0.1555-0.0641 0.0000 ( 11887 PWs)   bands (ev):

   -60.5611 -60.5224 -35.1135 -35.0755 -34.8097 -34.7704 -34.6431 -34.6051
   -12.4240 -12.3512 -12.3125 -12.2864  -6.2644  -6.1821  -5.4280  -5.3172
    -4.4071  -4.2482  -3.2646  -3.1916  -2.2973  -2.0551  -1.2959  -1.2130
    -0.4617  -0.4081   2.6739   2.8587   3.2332   3.3252   4.0420   4.2571
     4.5848   4.6894   6.9458   7.4302

     occupation numbers 
     1.0000   1.0000   1.0000   1.0000   1.0000   1.0000   1.0000   1.0000
     1.0000   1.0000   1.0000   1.0000   1.0000   1.0000   1.0000   1.0000
     1.0000   1.0000   1.0000   1.0000   1.0000   1.0000   1.0000   1.0000
     1.0000   1.0000   0.0000   0.0000   0.0000   0.0000   0.0000   0.0000
     0.0000   0.0000   0.0000   0.0000

          k =-0.1555-0.0385 0.0000 ( 11877 PWs)   bands (ev):

   -60.5625 -60.5238 -35.0644 -35.0265 -34.8122 -34.7729 -34.6819 -34.6440
   -12.4784 -12.3903 -12.3568 -12.3100  -5.9674  -5.8687  -5.3236  -5.2434
    -4.1870  -4.0203  -3.5748  -3.3903  -2.0989  -1.9981  -1.9585  -1.8253
    -0.4965  -0.4454   2.2761   2.6539   3.3965   3.4519   3.6238   3.7963
     4.7740   4.9171   7.4337   7.9298

     occupation numbers 
     1.0000   1.0000   1.0000   1.0000   1.0000   1.0000   1.0000   1.0000
     1.0000   1.0000   1.0000   1.0000   1.0000   1.0000   1.0000   1.0000
     1.0000   1.0000   1.0000   1.0000   1.0000   1.0000   1.0000   1.0000
     1.0000   1.0000   0.0000   0.0000   0.0000   0.0000   0.0000   0.0000
     0.0000   0.0000   0.0000   0.0000

          k =-0.1555-0.0128 0.0000 ( 11873 PWs)   bands (ev):

   -60.5632 -60.5245 -35.0202 -34.9822 -34.8136 -34.7743 -34.7213 -34.6833
   -12.5157 -12.4174 -12.3775 -12.3118  -5.7199  -5.5980  -5.2222  -5.1826
    -3.9782  -3.7742  -3.7045  -3.5087  -2.7790  -2.6878  -1.7427  -1.6611
    -0.5736  -0.5165   2.0315   2.5159   3.2424   3.3740   3.5072   3.5513
     5.0381   5.1929   7.9921   8.2775

     occupation numbers 
     1.0000   1.0000   1.0000   1.0000   1.0000   1.0000   1.0000   1.0000
     1.0000   1.0000   1.0000   1.0000   1.0000   1.0000   1.0000   1.0000
     1.0000   1.0000   1.0000   1.0000   1.0000   1.0000   1.0000   1.0000
     1.0000   1.0000   0.0000   0.0000   0.0000   0.0000   0.0000   0.0000
     0.0000   0.0000   0.0000   0.0000

          k =-0.1555 0.0128 0.0000 ( 11873 PWs)   bands (ev):

   -60.5632 -60.5245 -35.0202 -34.9822 -34.8136 -34.7743 -34.7213 -34.6833
   -12.5157 -12.4174 -12.3775 -12.3118  -5.7199  -5.5980  -5.2222  -5.1826
    -3.9782  -3.7742  -3.7045  -3.5087  -2.7790  -2.6878  -1.7427  -1.6611
    -0.5736  -0.5165   2.0315   2.5159   3.2424   3.3740   3.5072   3.5513
     5.0381   5.1929   7.9921   8.2775

     occupation numbers 
     1.0000   1.0000   1.0000   1.0000   1.0000   1.0000   1.0000   1.0000
     1.0000   1.0000   1.0000   1.0000   1.0000   1.0000   1.0000   1.0000
     1.0000   1.0000   1.0000   1.0000   1.0000   1.0000   1.0000   1.0000
     1.0000   1.0000   0.0000   0.0000   0.0000   0.0000   0.0000   0.0000
     0.0000   0.0000   0.0000   0.0000

          k =-0.1555 0.0385 0.0000 ( 11877 PWs)   bands (ev):

   -60.5625 -60.5238 -35.0644 -35.0265 -34.8122 -34.7729 -34.6819 -34.6440
   -12.4784 -12.3903 -12.3568 -12.3100  -5.9674  -5.8687  -5.3236  -5.2434
    -4.1870  -4.0203  -3.5748  -3.3903  -2.0989  -1.9981  -1.9585  -1.8253
    -0.4965  -0.4454   2.2761   2.6539   3.3965   3.4519   3.6238   3.7963
     4.7740   4.9171   7.4337   7.9298

     occupation numbers 
     1.0000   1.0000   1.0000   1.0000   1.0000   1.0000   1.0000   1.0000
     1.0000   1.0000   1.0000   1.0000   1.0000   1.0000   1.0000   1.0000
     1.0000   1.0000   1.0000   1.0000   1.0000   1.0000   1.0000   1.0000
     1.0000   1.0000   0.0000   0.0000   0.0000   0.0000   0.0000   0.0000
     0.0000   0.0000   0.0000   0.0000

          k =-0.1555 0.0641 0.0000 ( 11887 PWs)   bands (ev):

   -60.5611 -60.5224 -35.1135 -35.0755 -34.8097 -34.7704 -34.6431 -34.6051
   -12.4240 -12.3512 -12.3125 -12.2864  -6.2644  -6.1821  -5.4280  -5.3172
    -4.4071  -4.2482  -3.2646  -3.1916  -2.2973  -2.0551  -1.2959  -1.2130
    -0.4617  -0.4081   2.6739   2.8587   3.2332   3.3252   4.0420   4.2571
     4.5848   4.6894   6.9458   7.4302

     occupation numbers 
     1.0000   1.0000   1.0000   1.0000   1.0000   1.0000   1.0000   1.0000
     1.0000   1.0000   1.0000   1.0000   1.0000   1.0000   1.0000   1.0000
     1.0000   1.0000   1.0000   1.0000   1.0000   1.0000   1.0000   1.0000
     1.0000   1.0000   0.0000   0.0000   0.0000   0.0000   0.0000   0.0000
     0.0000   0.0000   0.0000   0.0000

          k =-0.1555 0.0898 0.0000 ( 11911 PWs)   bands (ev):

   -60.5594 -60.5207 -35.1419 -35.1040 -34.8065 -34.7672 -34.6297 -34.5918
   -12.3770 -12.3081 -12.2630 -12.2173  -6.4366  -6.3593  -5.5006  -5.3862
    -4.5144  -4.3607  -3.1581  -3.1094  -2.4507  -2.1551  -0.8155  -0.6722
    -0.5877  -0.4929   2.9683   3.0101   3.1280   3.3121   4.0254   4.2931
     4.7063   4.9071   6.6656   7.0629

     occupation numbers 
     1.0000   1.0000   1.0000   1.0000   1.0000   1.0000   1.0000   1.0000
     1.0000   1.0000   1.0000   1.0000   1.0000   1.0000   1.0000   1.0000
     1.0000   1.0000   1.0000   1.0000   1.0000   1.0000   1.0000   1.0000
     1.0000   1.0000   0.0000   0.0000   0.0000   0.0000   0.0000   0.0000
     0.0000   0.0000   0.0000   0.0000

          k =-0.1332-0.2564 0.0000 ( 11849 PWs)   bands (ev):

   -60.5560 -60.5173 -35.1079 -35.0699 -34.8004 -34.7611 -34.7003 -34.6623
   -12.2902 -12.2260 -12.1503 -12.0994  -6.1629  -6.0844  -5.6168  -5.5451
    -4.3766  -4.2183  -3.4609  -3.3483  -2.2829  -2.1082  -2.0029  -1.8971
    -0.3166  -0.2372   2.7045   2.8576   3.5081   3.6183   3.7793   3.9556
     4.6608   4.8752   6.8385   7.2986

     occupation numbers 
     1.0000   1.0000   1.0000   1.0000   1.0000   1.0000   1.0000   1.0000
     1.0000   1.0000   1.0000   1.0000   1.0000   1.0000   1.0000   1.0000
     1.0000   1.0000   1.0000   1.0000   1.0000   1.0000   1.0000   1.0000
     1.0000   1.0000   0.0000   0.0000   0.0000   0.0000   0.0000   0.0000
     0.0000   0.0000   0.0000   0.0000

          k =-0.1332-0.2308 0.0000 ( 11828 PWs)   bands (ev):

   -60.5521 -60.5134 -35.0719 -35.0340 -34.7933 -34.7779 -34.7539 -34.7399
   -12.1883 -12.1361 -11.9976 -11.9505  -5.8844  -5.8149  -5.7864  -5.7601
    -4.3030  -4.1494  -3.4903  -3.3721  -2.8789  -2.7343  -2.3154  -2.2187
    -0.1961  -0.1243   2.6471   2.7119   3.2704   3.3689   3.7417   3.8671
     5.1513   5.3306   6.9957   7.4703

     occupation numbers 
     1.0000   1.0000   1.0000   1.0000   1.0000   1.0000   1.0000   1.0000
     1.0000   1.0000   1.0000   1.0000   1.0000   1.0000   1.0000   1.0000
     1.0000   1.0000   1.0000   1.0000   1.0000   1.0000   1.0000   1.0000
     1.0000   1.0000   0.0000   0.0000   0.0000   0.0000   0.0000   0.0000
     0.0000   0.0000   0.0000   0.0000

          k =-0.1332-0.2051 0.0000 ( 11821 PWs)   bands (ev):

   -60.5499 -60.5112 -35.0224 -34.9844 -34.8507 -34.8127 -34.7893 -34.7500
   -12.1288 -12.0816 -11.9154 -11.8705  -5.9652  -5.9295  -5.4886  -5.4105
    -4.2401  -4.1468  -3.5780  -3.4793  -3.3624  -3.2716  -2.3959  -2.3100
    -0.0978  -0.0466   2.4685   2.5588   2.9883   3.0340   3.8630   3.9954
     5.5402   5.6497   7.3474   7.8075

     occupation numbers 
     1.0000   1.0000   1.0000   1.0000   1.0000   1.0000   1.0000   1.0000
     1.0000   1.0000   1.0000   1.0000   1.0000   1.0000   1.0000   1.0000
     1.0000   1.0000   1.0000   1.0000   1.0000   1.0000   1.0000   1.0000
     1.0000   1.0000   0.0000   0.0000   0.0000   0.0000   0.0000   0.0000
     0.0000   0.0000   0.0000   0.0000

          k =-0.1332-0.1795 0.0000 ( 11821 PWs)   bands (ev):

   -60.5499 -60.5112 -35.0224 -34.9844 -34.8507 -34.8127 -34.7893 -34.7500
   -12.1288 -12.0816 -11.9154 -11.8705  -5.9652  -5.9295  -5.4886  -5.4105
    -4.2401  -4.1468  -3.5780  -3.4793  -3.3624  -3.2716  -2.3959  -2.3100
    -0.0978  -0.0466   2.4685   2.5588   2.9883   3.0340   3.8630   3.9954
     5.5402   5.6497   7.3474   7.8075

     occupation numbers 
     1.0000   1.0000   1.0000   1.0000   1.0000   1.0000   1.0000   1.0000
     1.0000   1.0000   1.0000   1.0000   1.0000   1.0000   1.0000   1.0000
     1.0000   1.0000   1.0000   1.0000   1.0000   1.0000   1.0000   1.0000
     1.0000   1.0000   0.0000   0.0000   0.0000   0.0000   0.0000   0.0000
     0.0000   0.0000   0.0000   0.0000

          k =-0.1332-0.1539 0.0000 ( 11828 PWs)   bands (ev):

   -60.5521 -60.5134 -35.0719 -35.0340 -34.7933 -34.7779 -34.7539 -34.7399
   -12.1883 -12.1361 -11.9976 -11.9505  -5.8844  -5.8149  -5.7864  -5.7601
    -4.3030  -4.1494  -3.4903  -3.3721  -2.8789  -2.7343  -2.3154  -2.2187
    -0.1961  -0.1243   2.6471   2.7119   3.2704   3.3689   3.7417   3.8671
     5.1513   5.3306   6.9957   7.4703

     occupation numbers 
     1.0000   1.0000   1.0000   1.0000   1.0000   1.0000   1.0000   1.0000
[...]

   -60.5664 -60.5277 -35.0876 -35.0496 -34.8194 -34.7801 -34.6171 -34.5791
   -12.6124 -12.5133 -12.4623 -12.3904  -6.1704  -6.0764  -5.2653  -5.1196
    -4.3499  -4.1866  -3.0344  -2.9861  -2.3546  -2.0359  -1.0751  -0.8896
    -0.6914  -0.6089   2.7126   2.8190   2.8724   3.0090   3.9363   4.2262
     4.6709   4.8582   7.2270   7.6503

     occupation numbers 
     1.0000   1.0000   1.0000   1.0000   1.0000   1.0000   1.0000   1.0000
     1.0000   1.0000   1.0000   1.0000   1.0000   1.0000   1.0000   1.0000
     1.0000   1.0000   1.0000   1.0000   1.0000   1.0000   1.0000   1.0000
     1.0000   1.0000   0.0000   0.0000   0.0000   0.0000   0.0000   0.0000
     0.0000   0.0000   0.0000   0.0000

          k = 0.1332 0.1026 0.0000 ( 11887 PWs)   bands (ev):

   -60.5611 -60.5224 -35.1135 -35.0755 -34.8097 -34.7704 -34.6431 -34.6051
   -12.4240 -12.3512 -12.3125 -12.2864  -6.2644  -6.1821  -5.4280  -5.3172
    -4.4071  -4.2482  -3.2646  -3.1916  -2.2973  -2.0551  -1.2959  -1.2130
    -0.4617  -0.4081   2.6739   2.8587   3.2332   3.3252   4.0420   4.2571
     4.5848   4.6894   6.9458   7.4302

     occupation numbers 
     1.0000   1.0000   1.0000   1.0000   1.0000   1.0000   1.0000   1.0000
     1.0000   1.0000   1.0000   1.0000   1.0000   1.0000   1.0000   1.0000
     1.0000   1.0000   1.0000   1.0000   1.0000   1.0000   1.0000   1.0000
     1.0000   1.0000   0.0000   0.0000   0.0000   0.0000   0.0000   0.0000
     0.0000   0.0000   0.0000   0.0000

          k = 0.1332 0.1282 0.0000 ( 11849 PWs)   bands (ev):

   -60.5560 -60.5173 -35.1079 -35.0699 -34.8004 -34.7611 -34.7003 -34.6623
   -12.2902 -12.2260 -12.1503 -12.0994  -6.1629  -6.0844  -5.6168  -5.5451
    -4.3766  -4.2183  -3.4609  -3.3483  -2.2829  -2.1082  -2.0029  -1.8971
    -0.3166  -0.2372   2.7045   2.8576   3.5081   3.6183   3.7793   3.9556
     4.6608   4.8752   6.8385   7.2986

     occupation numbers 
     1.0000   1.0000   1.0000   1.0000   1.0000   1.0000   1.0000   1.0000
     1.0000   1.0000   1.0000   1.0000   1.0000   1.0000   1.0000   1.0000
     1.0000   1.0000   1.0000   1.0000   1.0000   1.0000   1.0000   1.0000
     1.0000   1.0000   0.0000   0.0000   0.0000   0.0000   0.0000   0.0000
     0.0000   0.0000   0.0000   0.0000

          k = 0.1332 0.1539 0.0000 ( 11828 PWs)   bands (ev):

   -60.5521 -60.5134 -35.0719 -35.0340 -34.7933 -34.7779 -34.7539 -34.7399
   -12.1883 -12.1361 -11.9976 -11.9505  -5.8844  -5.8149  -5.7864  -5.7601
    -4.3030  -4.1494  -3.4903  -3.3721  -2.8789  -2.7343  -2.3154  -2.2187
    -0.1961  -0.1243   2.6471   2.7119   3.2704   3.3689   3.7417   3.8671
     5.1513   5.3306   6.9957   7.4703

     occupation numbers 
     1.0000   1.0000   1.0000   1.0000   1.0000   1.0000   1.0000   1.0000
     1.0000   1.0000   1.0000   1.0000   1.0000   1.0000   1.0000   1.0000
     1.0000   1.0000   1.0000   1.0000   1.0000   1.0000   1.0000   1.0000
     1.0000   1.0000   0.0000   0.0000   0.0000   0.0000   0.0000   0.0000
     0.0000   0.0000   0.0000   0.0000

          k = 0.1332 0.1795 0.0000 ( 11821 PWs)   bands (ev):

   -60.5499 -60.5112 -35.0224 -34.9844 -34.8507 -34.8127 -34.7893 -34.7500
   -12.1288 -12.0816 -11.9154 -11.8705  -5.9652  -5.9295  -5.4886  -5.4105
    -4.2401  -4.1468  -3.5780  -3.4793  -3.3624  -3.2716  -2.3959  -2.3100
    -0.0978  -0.0466   2.4685   2.5588   2.9883   3.0340   3.8630   3.9954
     5.5402   5.6497   7.3474   7.8075

     occupation numbers 
     1.0000   1.0000   1.0000   1.0000   1.0000   1.0000   1.0000   1.0000
     1.0000   1.0000   1.0000   1.0000   1.0000   1.0000   1.0000   1.0000
     1.0000   1.0000   1.0000   1.0000   1.0000   1.0000   1.0000   1.0000
     1.0000   1.0000   0.0000   0.0000   0.0000   0.0000   0.0000   0.0000
     0.0000   0.0000   0.0000   0.0000

          k = 0.1332 0.2051 0.0000 ( 11821 PWs)   bands (ev):

   -60.5499 -60.5112 -35.0224 -34.9844 -34.8507 -34.8127 -34.7893 -34.7500
   -12.1288 -12.0816 -11.9154 -11.8705  -5.9652  -5.9295  -5.4886  -5.4105
    -4.2401  -4.1468  -3.5780  -3.4793  -3.3624  -3.2716  -2.3959  -2.3100
    -0.0978  -0.0466   2.4685   2.5588   2.9883   3.0340   3.8630   3.9954
     5.5402   5.6497   7.3474   7.8075

     occupation numbers 
     1.0000   1.0000   1.0000   1.0000   1.0000   1.0000   1.0000   1.0000
     1.0000   1.0000   1.0000   1.0000   1.0000   1.0000   1.0000   1.0000
     1.0000   1.0000   1.0000   1.0000   1.0000   1.0000   1.0000   1.0000
     1.0000   1.0000   0.0000   0.0000   0.0000   0.0000   0.0000   0.0000
     0.0000   0.0000   0.0000   0.0000

          k = 0.1332 0.2308 0.0000 ( 11828 PWs)   bands (ev):

   -60.5521 -60.5134 -35.0719 -35.0340 -34.7933 -34.7779 -34.7539 -34.7399
   -12.1883 -12.1361 -11.9976 -11.9505  -5.8844  -5.8149  -5.7864  -5.7601
    -4.3030  -4.1494  -3.4903  -3.3721  -2.8789  -2.7343  -2.3154  -2.2187
    -0.1961  -0.1243   2.6471   2.7119   3.2704   3.3689   3.7417   3.8671
     5.1513   5.3306   6.9957   7.4703

     occupation numbers 
     1.0000   1.0000   1.0000   1.0000   1.0000   1.0000   1.0000   1.0000
     1.0000   1.0000   1.0000   1.0000   1.0000   1.0000   1.0000   1.0000
     1.0000   1.0000   1.0000   1.0000   1.0000   1.0000   1.0000   1.0000
     1.0000   1.0000   0.0000   0.0000   0.0000   0.0000   0.0000   0.0000
     0.0000   0.0000   0.0000   0.0000

          k = 0.1332 0.2564 0.0000 ( 11849 PWs)   bands (ev):

   -60.5560 -60.5173 -35.1079 -35.0699 -34.8004 -34.7611 -34.7003 -34.6623
   -12.2902 -12.2260 -12.1503 -12.0994  -6.1629  -6.0844  -5.6168  -5.5451
    -4.3766  -4.2183  -3.4609  -3.3483  -2.2829  -2.1082  -2.0029  -1.8971
    -0.3166  -0.2372   2.7045   2.8576   3.5081   3.6183   3.7793   3.9556
     4.6608   4.8752   6.8385   7.2986

     occupation numbers 
     1.0000   1.0000   1.0000   1.0000   1.0000   1.0000   1.0000   1.0000
     1.0000   1.0000   1.0000   1.0000   1.0000   1.0000   1.0000   1.0000
     1.0000   1.0000   1.0000   1.0000   1.0000   1.0000   1.0000   1.0000
     1.0000   1.0000   0.0000   0.0000   0.0000   0.0000   0.0000   0.0000
     0.0000   0.0000   0.0000   0.0000

          k = 0.1555-0.0898 0.0000 ( 11911 PWs)   bands (ev):

   -60.5594 -60.5207 -35.1419 -35.1040 -34.8065 -34.7672 -34.6297 -34.5918
   -12.3770 -12.3081 -12.2630 -12.2173  -6.4366  -6.3593  -5.5006  -5.3862
    -4.5144  -4.3607  -3.1581  -3.1094  -2.4507  -2.1551  -0.8155  -0.6722
    -0.5877  -0.4929   2.9683   3.0101   3.1280   3.3121   4.0254   4.2931
     4.7063   4.9071   6.6656   7.0629

     occupation numbers 
     1.0000   1.0000   1.0000   1.0000   1.0000   1.0000   1.0000   1.0000
     1.0000   1.0000   1.0000   1.0000   1.0000   1.0000   1.0000   1.0000
     1.0000   1.0000   1.0000   1.0000   1.0000   1.0000   1.0000   1.0000
     1.0000   1.0000   0.0000   0.0000   0.0000   0.0000   0.0000   0.0000
     0.0000   0.0000   0.0000   0.0000

          k = 0.1555-0.0641 0.0000 ( 11887 PWs)   bands (ev):

   -60.5611 -60.5224 -35.1135 -35.0755 -34.8097 -34.7704 -34.6431 -34.6051
   -12.4240 -12.3512 -12.3125 -12.2864  -6.2644  -6.1821  -5.4280  -5.3172
    -4.4071  -4.2482  -3.2646  -3.1916  -2.2973  -2.0551  -1.2959  -1.2130
    -0.4617  -0.4081   2.6739   2.8587   3.2332   3.3252   4.0420   4.2571
     4.5848   4.6894   6.9458   7.4302

     occupation numbers 
     1.0000   1.0000   1.0000   1.0000   1.0000   1.0000   1.0000   1.0000
     1.0000   1.0000   1.0000   1.0000   1.0000   1.0000   1.0000   1.0000
     1.0000   1.0000   1.0000   1.0000   1.0000   1.0000   1.0000   1.0000
     1.0000   1.0000   0.0000   0.0000   0.0000   0.0000   0.0000   0.0000
     0.0000   0.0000   0.0000   0.0000

          k = 0.1555-0.0385 0.0000 ( 11877 PWs)   bands (ev):

   -60.5625 -60.5238 -35.0644 -35.0265 -34.8122 -34.7729 -34.6819 -34.6440
   -12.4784 -12.3903 -12.3568 -12.3100  -5.9674  -5.8687  -5.3236  -5.2434
    -4.1870  -4.0203  -3.5748  -3.3903  -2.0989  -1.9981  -1.9585  -1.8253
    -0.4965  -0.4454   2.2761   2.6539   3.3965   3.4519   3.6238   3.7963
     4.7740   4.9171   7.4337   7.9298

     occupation numbers 
     1.0000   1.0000   1.0000   1.0000   1.0000   1.0000   1.0000   1.0000
     1.0000   1.0000   1.0000   1.0000   1.0000   1.0000   1.0000   1.0000
     1.0000   1.0000   1.0000   1.0000   1.0000   1.0000   1.0000   1.0000
     1.0000   1.0000   0.0000   0.0000   0.0000   0.0000   0.0000   0.0000
     0.0000   0.0000   0.0000   0.0000

          k = 0.1555-0.0128 0.0000 ( 11873 PWs)   bands (ev):

   -60.5632 -60.5245 -35.0202 -34.9822 -34.8136 -34.7743 -34.7213 -34.6833
   -12.5157 -12.4174 -12.3775 -12.3118  -5.7199  -5.5980  -5.2222  -5.1826
    -3.9782  -3.7742  -3.7045  -3.5087  -2.7790  -2.6878  -1.7427  -1.6611
    -0.5736  -0.5165   2.0315   2.5159   3.2424   3.3740   3.5072   3.5513
     5.0381   5.1929   7.9921   8.2775

     occupation numbers 
     1.0000   1.0000   1.0000   1.0000   1.0000   1.0000   1.0000   1.0000
     1.0000   1.0000   1.0000   1.0000   1.0000   1.0000   1.0000   1.0000
     1.0000   1.0000   1.0000   1.0000   1.0000   1.0000   1.0000   1.0000
     1.0000   1.0000   0.0000   0.0000   0.0000   0.0000   0.0000   0.0000
     0.0000   0.0000   0.0000   0.0000

          k = 0.1555 0.0128 0.0000 ( 11873 PWs)   bands (ev):

   -60.5632 -60.5245 -35.0202 -34.9822 -34.8136 -34.7743 -34.7213 -34.6833
   -12.5157 -12.4174 -12.3775 -12.3118  -5.7199  -5.5980  -5.2222  -5.1826
    -3.9782  -3.7742  -3.7045  -3.5087  -2.7790  -2.6878  -1.7427  -1.6611
    -0.5736  -0.5165   2.0315   2.5159   3.2424   3.3740   3.5072   3.5513
     5.0381   5.1929   7.9921   8.2775

     occupation numbers 
     1.0000   1.0000   1.0000   1.0000   1.0000   1.0000   1.0000   1.0000
     1.0000   1.0000   1.0000   1.0000   1.0000   1.0000   1.0000   1.0000
     1.0000   1.0000   1.0000   1.0000   1.0000   1.0000   1.0000   1.0000
     1.0000   1.0000   0.0000   0.0000   0.0000   0.0000   0.0000   0.0000
     0.0000   0.0000   0.0000   0.0000

          k = 0.1555 0.0385 0.0000 ( 11877 PWs)   bands (ev):

   -60.5625 -60.5238 -35.0644 -35.0265 -34.8122 -34.7729 -34.6819 -34.6440
   -12.4784 -12.3903 -12.3568 -12.3100  -5.9674  -5.8687  -5.3236  -5.2434
    -4.1870  -4.0203  -3.5748  -3.3903  -2.0989  -1.9981  -1.9585  -1.8253
    -0.4965  -0.4454   2.2761   2.6539   3.3965   3.4519   3.6238   3.7963
     4.7740   4.9171   7.4337   7.9298

     occupation numbers 
     1.0000   1.0000   1.0000   1.0000   1.0000   1.0000   1.0000   1.0000
     1.0000   1.0000   1.0000   1.0000   1.0000   1.0000   1.0000   1.0000
     1.0000   1.0000   1.0000   1.0000   1.0000   1.0000   1.0000   1.0000
     1.0000   1.0000   0.0000   0.0000   0.0000   0.0000   0.0000   0.0000
     0.0000   0.0000   0.0000   0.0000

          k = 0.1555 0.0641 0.0000 ( 11887 PWs)   bands (ev):

   -60.5611 -60.5224 -35.1135 -35.0755 -34.8097 -34.7704 -34.6431 -34.6051
   -12.4240 -12.3512 -12.3125 -12.2864  -6.2644  -6.1821  -5.4280  -5.3172
    -4.4071  -4.2482  -3.2646  -3.1916  -2.2973  -2.0551  -1.2959  -1.2130
    -0.4617  -0.4081   2.6739   2.8587   3.2332   3.3252   4.0420   4.2571
     4.5848   4.6894   6.9458   7.4302

     occupation numbers 
     1.0000   1.0000   1.0000   1.0000   1.0000   1.0000   1.0000   1.0000
     1.0000   1.0000   1.0000   1.0000   1.0000   1.0000   1.0000   1.0000
     1.0000   1.0000   1.0000   1.0000   1.0000   1.0000   1.0000   1.0000
     1.0000   1.0000   0.0000   0.0000   0.0000   0.0000   0.0000   0.0000
     0.0000   0.0000   0.0000   0.0000

          k = 0.1555 0.0898 0.0000 ( 11911 PWs)   bands (ev):

   -60.5594 -60.5207 -35.1419 -35.1040 -34.8065 -34.7672 -34.6297 -34.5918
   -12.3770 -12.3081 -12.2630 -12.2173  -6.4366  -6.3593  -5.5006  -5.3862
    -4.5144  -4.3607  -3.1581  -3.1094  -2.4507  -2.1551  -0.8155  -0.6722
    -0.5877  -0.4929   2.9683   3.0101   3.1280   3.3121   4.0254   4.2931
     4.7063   4.9071   6.6656   7.0629

     occupation numbers 
     1.0000   1.0000   1.0000   1.0000   1.0000   1.0000   1.0000   1.0000
     1.0000   1.0000   1.0000   1.0000   1.0000   1.0000   1.0000   1.0000
     1.0000   1.0000   1.0000   1.0000   1.0000   1.0000   1.0000   1.0000
     1.0000   1.0000   0.0000   0.0000   0.0000   0.0000   0.0000   0.0000
     0.0000   0.0000   0.0000   0.0000

          k = 0.1555 0.1154 0.0000 ( 11882 PWs)   bands (ev):

   -60.5576 -60.5189 -35.1399 -35.1019 -34.8032 -34.7639 -34.6502 -34.6122
   -12.3329 -12.2696 -12.1978 -12.1492  -6.4019  -6.3256  -5.5593  -5.4605
    -4.5007  -4.3466  -3.2682  -3.2181  -2.3963  -2.1464  -1.1975  -1.1473
    -0.3726  -0.3070   2.9242   2.9593   3.3320   3.4556   4.1831   4.4118
     4.4419   4.6180   6.6282   7.0091

     occupation numbers 
     1.0000   1.0000   1.0000   1.0000   1.0000   1.0000   1.0000   1.0000
     1.0000   1.0000   1.0000   1.0000   1.0000   1.0000   1.0000   1.0000
     1.0000   1.0000   1.0000   1.0000   1.0000   1.0000   1.0000   1.0000
     1.0000   1.0000   0.0000   0.0000   0.0000   0.0000   0.0000   0.0000
     0.0000   0.0000   0.0000   0.0000

          k = 0.1555 0.1410 0.0000 ( 11849 PWs)   bands (ev):

   -60.5560 -60.5173 -35.1079 -35.0699 -34.8004 -34.7611 -34.7003 -34.6623
   -12.2902 -12.2260 -12.1503 -12.0994  -6.1629  -6.0844  -5.6168  -5.5451
    -4.3766  -4.2183  -3.4609  -3.3483  -2.2829  -2.1082  -2.0029  -1.8971
    -0.3166  -0.2372   2.7045   2.8576   3.5081   3.6183   3.7793   3.9556
     4.6608   4.8752   6.8385   7.2986

     occupation numbers 
     1.0000   1.0000   1.0000   1.0000   1.0000   1.0000   1.0000   1.0000
     1.0000   1.0000   1.0000   1.0000   1.0000   1.0000   1.0000   1.0000
     1.0000   1.0000   1.0000   1.0000   1.0000   1.0000   1.0000   1.0000
     1.0000   1.0000   0.0000   0.0000   0.0000   0.0000   0.0000   0.0000
     0.0000   0.0000   0.0000   0.0000

          k = 0.1555 0.1667 0.0000 ( 11853 PWs)   bands (ev):

   -60.5550 -60.5163 -35.0588 -35.0209 -34.7986 -34.7627 -34.7592 -34.7247
   -12.2582 -12.1895 -12.1249 -12.0715  -5.8342  -5.7382  -5.6604  -5.6160
    -4.1525  -3.9950  -3.6310  -3.4321  -2.8769  -2.7393  -2.1381  -2.0328
    -0.3290  -0.2714   2.4388   2.7096   3.2815   3.3744   3.6875   3.7676
     5.1232   5.3008   7.2832   7.7689

     occupation numbers 
     1.0000   1.0000   1.0000   1.0000   1.0000   1.0000   1.0000   1.0000
     1.0000   1.0000   1.0000   1.0000   1.0000   1.0000   1.0000   1.0000
     1.0000   1.0000   1.0000   1.0000   1.0000   1.0000   1.0000   1.0000
     1.0000   1.0000   0.0000   0.0000   0.0000   0.0000   0.0000   0.0000
     0.0000   0.0000   0.0000   0.0000

          k = 0.1555 0.1923 0.0000 ( 11844 PWs)   bands (ev):

   -60.5546 -60.5159 -35.0299 -34.9920 -34.7979 -34.7965 -34.7586 -34.7586
   -12.2464 -12.1754 -12.1171 -12.0629  -5.7044  -5.6605  -5.6269  -5.5426
    -3.8955  -3.8097  -3.6505  -3.4614  -3.3436  -3.3107  -2.0811  -1.9991
    -0.3433  -0.2966   2.3237   2.6345   3.1150   3.1662   3.7308   3.8122
     5.3268   5.4855   7.7675   7.8693

     occupation numbers 
     1.0000   1.0000   1.0000   1.0000   1.0000   1.0000   1.0000   1.0000
     1.0000   1.0000   1.0000   1.0000   1.0000   1.0000   1.0000   1.0000
     1.0000   1.0000   1.0000   1.0000   1.0000   1.0000   1.0000   1.0000
     1.0000   1.0000   0.0000   0.0000   0.0000   0.0000   0.0000   0.0000
     0.0000   0.0000   0.0000   0.0000

          k = 0.1555 0.2180 0.0000 ( 11853 PWs)   bands (ev):

   -60.5550 -60.5163 -35.0588 -35.0209 -34.7986 -34.7627 -34.7592 -34.7247
   -12.2582 -12.1895 -12.1249 -12.0715  -5.8342  -5.7382  -5.6604  -5.6160
    -4.1525  -3.9950  -3.6310  -3.4321  -2.8769  -2.7393  -2.1381  -2.0328
    -0.3290  -0.2714   2.4388   2.7096   3.2815   3.3744   3.6875   3.7676
     5.1232   5.3008   7.2832   7.7689

     occupation numbers 
     1.0000   1.0000   1.0000   1.0000   1.0000   1.0000   1.0000   1.0000
     1.0000   1.0000   1.0000   1.0000   1.0000   1.0000   1.0000   1.0000
     1.0000   1.0000   1.0000   1.0000   1.0000   1.0000   1.0000   1.0000
     1.0000   1.0000   0.0000   0.0000   0.0000   0.0000   0.0000   0.0000
     0.0000   0.0000   0.0000   0.0000

          k = 0.1555 0.2436 0.0000 ( 11849 PWs)   bands (ev):

   -60.5560 -60.5173 -35.1079 -35.0699 -34.8004 -34.7611 -34.7003 -34.6623
   -12.2902 -12.2260 -12.1503 -12.0994  -6.1629  -6.0844  -5.6168  -5.5451
    -4.3766  -4.2183  -3.4609  -3.3483  -2.2829  -2.1082  -2.0029  -1.8971
    -0.3166  -0.2372   2.7045   2.8576   3.5081   3.6183   3.7793   3.9556
     4.6608   4.8752   6.8385   7.2986

     occupation numbers 
     1.0000   1.0000   1.0000   1.0000   1.0000   1.0000   1.0000   1.0000
     1.0000   1.0000   1.0000   1.0000   1.0000   1.0000   1.0000   1.0000
     1.0000   1.0000   1.0000   1.0000   1.0000   1.0000   1.0000   1.0000
     1.0000   1.0000   0.0000   0.0000   0.0000   0.0000   0.0000   0.0000
     0.0000   0.0000   0.0000   0.0000

          k = 0.1555 0.2693 0.0000 ( 11882 PWs)   bands (ev):

   -60.5576 -60.5189 -35.1399 -35.1019 -34.8032 -34.7639 -34.6502 -34.6122
   -12.3329 -12.2696 -12.1978 -12.1492  -6.4019  -6.3256  -5.5593  -5.4605
    -4.5007  -4.3466  -3.2682  -3.2181  -2.3963  -2.1464  -1.1975  -1.1473
    -0.3726  -0.3070   2.9242   2.9593   3.3320   3.4556   4.1831   4.4118
     4.4419   4.6180   6.6282   7.0091

     occupation numbers 
     1.0000   1.0000   1.0000   1.0000   1.0000   1.0000   1.0000   1.0000
     1.0000   1.0000   1.0000   1.0000   1.0000   1.0000   1.0000   1.0000
     1.0000   1.0000   1.0000   1.0000   1.0000   1.0000   1.0000   1.0000
     1.0000   1.0000   0.0000   0.0000   0.0000   0.0000   0.0000   0.0000
     0.0000   0.0000   0.0000   0.0000

     highest occupied, lowest unoccupied level (ev):     0.0774    1.6893

     Writing all to output data dir ./calc.save/

     init_run     :      0.21s CPU      0.21s WALL (       1 calls)
     electrons    :   1401.42s CPU    457.06s WALL (       1 calls)

     Called by init_run:
     wfcinit      :      0.00s CPU      0.00s WALL (       1 calls)
     wfcinit:wfcr :      6.55s CPU      3.36s WALL (     225 calls)
     potinit      :      0.01s CPU      0.01s WALL (       1 calls)
     hinit0       :      0.16s CPU      0.16s WALL (       1 calls)

     Called by electrons:
     c_bands      :   1401.39s CPU    457.04s WALL (       1 calls)
     v_of_rho     :      0.00s CPU      0.00s WALL (       1 calls)
     v_h          :      0.00s CPU      0.00s WALL (       1 calls)
     v_xc         :      0.00s CPU      0.00s WALL (       1 calls)

     Called by c_bands:
     init_us_2    :      1.46s CPU      0.36s WALL (     225 calls)
     init_us_2:cp :      1.45s CPU      0.36s WALL (     225 calls)
     cegterg      :   1385.01s CPU    449.88s WALL (     730 calls)

     Called by sum_band:

     Called by *egterg:
     cdiaghg      :    722.60s CPU    213.37s WALL (   13382 calls)
     cegterg:over :     60.78s CPU     32.91s WALL (   13157 calls)
     cegterg:upda :     63.16s CPU     13.32s WALL (   13157 calls)
     cegterg:last :     24.74s CPU     10.39s WALL (    8469 calls)
     h_psi        :    473.27s CPU    150.73s WALL (   14112 calls)
     g_psi        :     15.54s CPU     11.58s WALL (   13157 calls)

     Called by h_psi:
     h_psi:calbec :     13.11s CPU     10.69s WALL (   14112 calls)
     vloc_psi     :    386.66s CPU    117.63s WALL (   14112 calls)
     add_vuspsi   :     64.70s CPU     15.78s WALL (   14112 calls)

     General routines
     calbec       :     12.86s CPU     10.45s WALL (   14112 calls)
     fft          :      0.03s CPU      0.03s WALL (      10 calls)
     fftw         :    353.21s CPU    109.19s WALL (  600714 calls)
     davcio       :      0.67s CPU      0.99s WALL (     450 calls)

     Parallel routines

     PWSCF        :  23m23.59s CPU   7m41.84s WALL


   This run was terminated on:  18:48: 8  27Jun2023            

=------------------------------------------------------------------------------=
   JOB DONE.
=------------------------------------------------------------------------------=
